----- GAMESS execution script 'rungms' -----
This job is running on host Samuels-MBP.attlocal.net
under operating system Darwin at Wed Sep 28 18:00:45 CDT 2022
Available scratch disk space (Kbyte units) at beginning of the job is
Filesystem     1K-blocks      Used Available Use% Mounted on
/dev/disk1s5s1 244912536 143691276  81828956  64% /
GAMESS temporary binary files will be written to /Users/Sammy/gamess/scratch
GAMESS supplementary output files will be written to /Users/Sammy/gamess/
Copying input file ./input_files/oxetanone_dft_2.inp to your run's scratch directory...
cp ./input_files/oxetanone_dft_2.inp /Users/Sammy/gamess/scratch/oxetanone_dft_2.F05
unset echo
/Users/Sammy/gamess//ddikick.x /Users/Sammy/gamess//gamess.30Jun2020R1.x oxetanone_dft_2 -ddi 1 1 localhost -scr /Users/Sammy/gamess/scratch

 Distributed Data Interface kickoff program.
 Initiating 1 compute processes on 1 nodes to run the following command:
 /Users/Sammy/gamess//gamess.30Jun2020R1.x oxetanone_dft_2 

          *******************************************************
          *                                                     *
          *          GAMESS VERSION = 30 JUN 2020 (R1)          *
          *                                                     *
          *              doi.org/10.1063/5.0005188              *
          *                                                     *
          **************** 64 BIT APPLE VERSION *****************

  GAMESS HAS BEEN MADE POSSIBLE WITH IMPORTANT CONTRIBUTIONS FROM
  THE FOLLOWING INDIVIDUALS (IN ALPHABETICAL ORDER):

     IVANA ADAMOVIC, CHRISTINE AIKENS, TOMOKO AKAMA,
     YURI ALEXEEV, YURIKO AOKI, POOJA ARORA, TOSHIO ASADA,
     ANDREY ASADCHEV, KIM K. BALDRIDGE, PRADIPTA BANDYOPADHYAY,
     MARIA BARYSZ, ROB BELL, JONATHAN BENTZ, COLLEEN BERTONI,
     JERRY A. BOATZ, BRETT BODE, KURT BRORSEN, KURT R. BRORSEN,
     LAIMUTIS BYTAUTAS, CALEB CARLIN, LAURA CARRINGTON,
     GALINA CHABAN, BENOIT CHAMPAGNE, WEI CHEN, MAHITO CHIBA,
     DAN CHIPMAN, CHEOL HO CHOI, TANNER CULPITT, PAUL DAY,
     ALBERT DEFUSCO, NUWAN DESILVA, J. EMILIANO DEUSTUA,
     TIM DUDLEY, MICHEL DUPUIS, STEVEN T. ELBERT,
     DMITRI FEDOROV, ALEX FINDLATER, GRAHAM FLETCHER,
     MARK FREITAG, CHRISTIAN FRIEDL, DAVID GARMER,
     IGOR S. GERASIMOV, KURT GLAESEMANN, MARK S. GORDON,
     JEFFREY GOUR, FENG LONG GU, EMILIE B. GUIDEZ,
     ANASTASIA GUNINA, SHARON HAMMES-SCHIFFER, MASATAKE HARUTA,
     KIMIHIKO HIRAO, YASUHIRO IKABATA, TZVETELIN IORDANOV,
     STEPHAN IRLE, KAZUYA ISHIMURA, JOE IVANIC, FRANK JENSEN,
     JAN H. JENSEN, VISVALDAS KAIRYS, MUNEAKI KAMIYA,
     MICHIO KATOUDA, NAOAKI KAWAKAMI, DAN KEMP, BERNARD KIRTMAN,
     KAZUO KITAURA, MARIUSZ KLOBUKOWSKI, MASATO KOBAYASHI,
     PRAKASHAN KORAMBATH, JACEK KORCHOWIEC, SHIRO KOSEKI,
     KAROL KOWALSKI, JIMMY KROMANN, STANISLAW KUCHARSKI,
     HENRY KURTZ, SAROM SOK LEANG, HUI LI, SHUHUA LI, WEI LI,
     JESSE LUTZ, ALEKSANDR O. LYKHIN, MARCIN MAKOWSKI,
     JOANI MATO, NIKITA MATSUNAGA, BENEDETTA MENNUCCI,
     GRANT MERRILL, NORIYUKI MINEZAWA, VLADIMIR MIRONOV,
     EISAKU MIYOSHI, JOHN A. MONTGOMERY JR., HIROTOSHI MORI,
     JONATHAN MULLIN, MONIKA MUSIAL, SHIGERU NAGASE,
     TAKESHI NAGATA, HIROMI NAKAI, TAKAHITO NAKAJIMA,
     YUYA NAKAJIMA, HARUYUKI NAKANO, HIROYA NAKATA, SEAN NEDD,
     HEATHER NETZLOFF, KIET A. NGUYEN, YOSHIO NISHIMOTO,
     BOSILJKA NJEGIC, RYAN OLSON, MIKE PAK, ROBERTO PEVERATI,
     BUU PHAM, PIOTR PIECUCH, ANNA POMOGAEVA, DAVID POOLE,
     SPENCER PRUITT, OLIVIER QUINET, LUKE ROSKOP,
     KLAUS RUEDENBERG, ANDREW SAND, TOSAPORN SATTASATHUCHANA,
     NOZOMI SAWADA, MICHAEL W. SCHMIDT, PATRICK E. SCHNEIDER,
     JUNJI SEINO, PRACHI SHARMA, JUN SHEN, JIM SHOEMAKER,
     YINAN SHU, DEJUN SI, JONATHAN SKONE, LYUDMILA SLIPCHENKO,
     TONY SMITH, JIE SONG, MARK SPACKMAN, CASPER STEINMANN,
     WALT STEVENS, PEIFENG SU, SHUJUN SU, CHET SWALINA,
     TETSUYA TAKETSUGU, ZHEN TAO, NANDUN THELLAMUREGE
     SEIKEN TOKURA, JACOPO TOMASI, TSUGUKI TOUMA, TAKAO TSUNEDA,
     HIROAKI UMEDA, JORGE LUIS GALVEZ VALLEJO, YALI WANG,
     SIMON WEBB, AARON WEST, THERESA L. WINDUS, MARTA WLOCH,
     PENG XU, KIYOSHI YAGI, SUSUMU YANAGISAWA, YANG YANG,
     SOOHAENG YOO, TAKESHI YOSHIKAWA, FEDERICO ZAHARIEV,
     TOBY ZENG

  WHO ARE SUPPORTED BY THEIR INSTITUTION/UNIVERSITY/COMPANY/GROUP
  (IN ALPHABETICAL ORDER):

     EP ANALYTICS, FACULTES UNIVERSITAIRES NOTRE-DAME DE LA PAIX,
     INSTITUTE FOR MOLECULAR SCIENCE, IOWA STATE UNIVERSITY,
     JACKSON STATE UNIVERSITY, JOHANNES KEPLER UNIVERSITY LINZ,
     KYUSHU UNIVERSITY, MICHIGAN STATE UNIVERSITY,
     MIE UNIVERSITY, MOSCOW STATE UNIVERSITY,
     N. COPERNICUS UNIVERSITY, NAGOYA UNIVERSITY,
     NANJING UNIVERSITY, NAT. INST. OF ADVANCED INDUSTRIAL
     SCIENCE AND TECHNOLOGY, NATIONAL INST. OF STANDARDS AND
     TECHNOLOGY, NESMEYANOV INSTITUTE OF ORGANOELEMENT COMPOUNDS
     OF RUSSIAN ACADEMY OF SCIENCES, OSAKA PREFECTURE UNIVERSITY,
     PENNSYLVANIA STATE UNIVERSITY, TOKYO INSTITUTE OF TECHNOLOGY,
     UNIVERSITY OF AARHUS, UNIVERSITY OF ALBERTA,
     UNIVERSITY OF CALIFORNIA AT SANTA BARBARA,
     UNIVERSITY OF COPENHAGEN, UNIVERSITY OF IOWA,
     UNIVERSITY OF MEMPHIS, UNIVERSITY OF MINNESOTA,
     UNIVERSITY OF NEBRASKA, UNIVERSITY OF NEW ENGLAND,
     UNIVERSITY OF NOTRE DAME, UNIVERSITY OF PISA,
     UNIVERSITY OF SILESIA, UNIVERSITY OF TOKYO,
     UNIVERSITY OF ZURICH, WASEDA UNIVERSITY, YALE UNIVERSITY

  GAMESS SOFTWARE MANAGEMENT TEAM FOR THIS RELEASE:

     MARK S. GORDON (TEAM LEAD),
     BRETT BODE (SENIOR ADVISOR),
     GIUSEPPE BARCA,
     COLLEEN BERTONI,
     KRISTOPHER KEIPERT (ADVISOR),
     SAROM S. LEANG (DEVELOPMENT LEAD),
     BUU PHAM,
     JORGE LUIS GALVEZ VALLEJO (WEBSITE ADMINISTRATOR),
     PENG XU

 EXECUTION OF GAMESS BEGUN Wed Sep 28 18:00:45 2022

            ECHO OF THE FIRST FEW INPUT CARDS -
 INPUT CARD>!   File created by MacMolPlt 7.7                                               
 INPUT CARD> $CONTRL SCFTYP=RHF RUNTYP=OPTIMIZE EXETYP=RUN DFTTYP=B3LYP MAXIT=30 MULT=1 $END
 INPUT CARD> $SYSTEM TIMLIM=525600 MEMORY=1000000 $END                                      
 INPUT CARD> $BASIS GBASIS=N311 NGAUSS=6 NDFUNC=2 NPFUNC=1 DIFFSP=.TRUE. $END               
 INPUT CARD> $GUESS GUESS=MOREAD NORB=19 $END                                               
 INPUT CARD> $SCF DIRSCF=.TRUE. $END                                                        
 INPUT CARD> $STATPT OPTTOL=0.0001 NSTEP=20 $END                                            
 INPUT CARD> $DATA                                                                          
 INPUT CARD>Title                                                                           
 INPUT CARD>C1                                                                              
 INPUT CARD>C     6.0    -0.60247    -0.00019    -0.06953                                   
 INPUT CARD>O     8.0    -1.90735     0.00031    -0.08738                                   
 INPUT CARD>C     6.0     0.50083    -1.05954    -0.04471                                   
 INPUT CARD>C     6.0     0.50176     1.05845    -0.06030                                   
 INPUT CARD>O     8.0     1.49241    -0.00078    -0.03024                                   
 INPUT CARD>H     1.0     0.56537    -1.68608    -0.93949                                   
 INPUT CARD>H     1.0     0.53283    -1.68101     0.85528                                   
 INPUT CARD>H     1.0     0.53364     1.69350     0.83014                                   
 INPUT CARD>H     1.0     0.56696     1.67158    -0.96428                                   
 INPUT CARD> $END                                                                           
 INPUT CARD> $VEC                                                                           
 INPUT CARD> 1  1 4.19999997E-05-1.84999997E-04-1.76000001E-04 0.00000000E+00-3.00000011E-06
 INPUT CARD> 1  2-1.42800005E-03-9.33000003E-04 0.00000000E+00-1.20000004E-05 5.20099979E-03
 INPUT CARD> 1  3 1.10919997E-02-4.99999987E-06 1.55000002E-04 7.71000003E-03-2.47099996E-03
 INPUT CARD> 1  4 9.99999997E-07-3.40000006E-05-4.75999987E-04-1.95000001E-04-2.20000002E-04
 INPUT CARD> 1  5 0.00000000E+00-3.99999999E-06-0.00000000E+00 7.62999989E-04-2.30000005E-03
 INPUT CARD> 1  6-1.94900006E-03-9.99999997E-07 4.80000017E-05 3.00000011E-06 5.52648008E-01
 INPUT CARD> 1  7 4.63436007E-01 1.63800002E-03-9.99999997E-07 2.20000002E-05 2.07770001E-02
 INPUT CARD> 1  8-1.45400001E-03 9.99999997E-07-1.89999992E-05 3.90239991E-02 2.76100007E-03
 INPUT CARD> 1  9-9.99999997E-07 3.89999987E-05-8.26799963E-03 5.31000027E-04-0.00000000E+00
 INPUT CARD> 1 10 7.99999998E-06-6.74699992E-03-6.98899990E-03-6.92200009E-03-0.00000000E+00
 INPUT CARD> 1 11 3.00000011E-06 9.99999997E-07-1.34039996E-02-1.32489996E-02-1.33859999E-02
 INPUT CARD> 1 12 0.00000000E+00 9.99999997E-07-9.99999997E-07-6.00000021E-06 2.40000008E-05
 INPUT CARD> 1 13-3.99999999E-06 5.29999998E-05-9.99999997E-07 1.63999997E-04 1.80000006E-05
 INPUT CARD> 1 14-2.84000009E-04 3.00000011E-06-7.07300007E-03-5.37000014E-04-3.41599993E-03
 INPUT CARD> 1 15 1.89999992E-05-2.59599998E-03 1.03199994E-03-2.88999989E-04 1.70000003E-05
 INPUT CARD> 1 16-1.99999999E-06 7.59999966E-05-1.99999999E-06 1.20000004E-05 0.00000000E+00
 INPUT CARD> 1 17 0.00000000E+00 7.68000027E-04-6.99000026E-04 2.05999997E-04-3.30000003E-05
 INPUT CARD> 1 18 9.99999975E-06 4.99999987E-06-6.00000021E-06 2.40000008E-05-3.99999999E-06
 INPUT CARD> 1 19-5.29999998E-05 0.00000000E+00 1.63999997E-04 1.89999992E-05 2.84000009E-04
 INPUT CARD> 1 20-9.99999997E-07-7.07100006E-03-5.33999992E-04 3.41599993E-03-3.09999996E-05
 INPUT CARD> 1 21-2.59499997E-03 1.03199994E-03 2.87000003E-04 1.29999999E-05-1.99999999E-06
 INPUT CARD> 1 22 7.59999966E-05-1.99999999E-06-1.20000004E-05 0.00000000E+00-1.99999999E-06
 INPUT CARD> 1 23 7.67000020E-04-6.99000026E-04 2.05999997E-04 3.19999999E-05 9.00000032E-06
 INPUT CARD> 1 24 9.99999975E-06 4.21000004E-04 3.26000008E-04 1.49999996E-05-0.00000000E+00
 INPUT CARD> 1 25-0.00000000E+00-1.53999994E-04-7.79999973E-05 0.00000000E+00 0.00000000E+00
 INPUT CARD> 1 26 2.46399990E-03-5.84999972E-04-0.00000000E+00-2.09999998E-05 4.25199978E-03
 INPUT CARD> 1 27-1.37299998E-03 0.00000000E+00-3.40000006E-05-2.09999998E-05-2.30000005E-05
 INPUT CARD> 1 28-4.30000000E-05-0.00000000E+00-0.00000000E+00-0.00000000E+00-1.21999998E-04
 INPUT CARD> 1 29-1.88000005E-04-1.02999998E-04 0.00000000E+00 1.99999999E-06 9.99999997E-07
    1000000 WORDS OF MEMORY AVAILABLE

     BASIS OPTIONS
     -------------
     GBASIS=N311         IGAUSS=       6      POLAR=POPN311 
     NDFUNC=       2     NFFUNC=       0     DIFFSP=       T
     NPFUNC=       1      DIFFS=       F     BASNAM=        
     SPLIT2=     2.00000000     0.50000000


     RUN TITLE
     ---------
 Title                                                                           

 THE POINT GROUP OF THE MOLECULE IS C1      
 THE ORDER OF THE PRINCIPAL AXIS IS     0

 ATOM      ATOMIC                      COORDINATES (BOHR)
           CHARGE         X                   Y                   Z
 C           6.0    -1.1385032158       -0.0003590479       -0.1313926479
 O           8.0    -3.6043688627        0.0005858151       -0.1651242568
 C           6.0     0.9464314664       -2.0022402730       -0.0844896489
 C           6.0     0.9481889116        2.0001804717       -0.1139504771
 O           8.0     2.8202459613       -0.0014739863       -0.0571453139
 H           1.0     1.0683943817       -3.1862291934       -1.7753786682
 H           1.0     1.0069026980       -3.1766482826        1.6162448428
 H           1.0     1.0084333761        3.2002509602        1.5687371314
 H           1.0     1.0713990460        3.1588281666       -1.8222249754

          INTERNUCLEAR DISTANCES (ANGS.)
          ------------------------------

                1 C          2 O          3 C          4 C          5 O     

   1 C       0.0000000    1.3050022 *  1.5297416 *  1.5297476 *  2.0952485 *
   2 O       1.3050022 *  0.0000000    2.6314319 *  2.6313883 *  3.4002403  
   3 C       1.5297416 *  2.6314319 *  0.0000000    2.1180476 *  1.4506595 *
   4 C       1.5297476 *  2.6313883 *  2.1180476 *  0.0000000    1.4506065 *
   5 O       2.0952485 *  3.4002403    1.4506595 *  1.4506065 *  0.0000000  
   6 H       2.2277580 *  3.1119683    1.0942345 *  2.8826145 *  2.1275279 *
   7 H       2.2292006 *  3.1096500    1.0941805 *  2.8885798 *  2.1279362 *
   8 H       2.2290666 *  3.1092069    2.8888870 *  1.0941610 *  2.1283981 *
   9 H       2.2277700 *  3.1119619    2.8825334 *  1.0942391 *  2.1273637 *

                6 H          7 H          8 H          9 H     

   1 C       2.2277580 *  2.2292006 *  2.2290666 *  2.2277700 *
   2 O       3.1119683    3.1096500    3.1092069    3.1119619  
   3 C       1.0942345 *  1.0941805 *  2.8888870 *  2.8825334 *
   4 C       2.8826145 *  2.8885798 *  1.0941610 *  1.0942391 *
   5 O       2.1275279 *  2.1279362 *  2.1283981 *  2.1273637 *
   6 H       0.0000000    1.7950721 *  3.8149912    3.3577519  
   7 H       1.7950721 *  0.0000000    3.3746037    3.8146852  
   8 H       3.8149912    3.3746037    0.0000000    1.7948632 *
   9 H       3.3577519    3.8146852    1.7948632 *  0.0000000  

  * ... LESS THAN  3.000


     ATOMIC BASIS SET
     ----------------
 THE CONTRACTED PRIMITIVE FUNCTIONS HAVE BEEN UNNORMALIZED
 THE CONTRACTED BASIS FUNCTIONS ARE NOW NORMALIZED TO UNITY

  SHELL TYPE  PRIMITIVE        EXPONENT          CONTRACTION COEFFICIENT(S)

 C         

      1   S       1          4563.2400000    0.001966650249
      1   S       2           682.0240000    0.015230601932
      1   S       3           154.9730000    0.076126909656
      1   S       4            44.4553000    0.260801033080
      1   S       5            13.0290000    0.616462078191
      1   S       6             1.8277300    0.221006028032

      2   L       7            20.9642000    0.114660080729    0.040248692673
      2   L       8             4.8033100    0.919999647749    0.237593956746
      2   L       9             1.4593300   -0.003030682134    0.815853851473

      3   L      10             0.4834560    1.000000000000    1.000000000000

      4   L      11             0.1455850    1.000000000000    1.000000000000

      5   L      12             0.0438000    1.000000000000    1.000000000000

      6   D      13             1.2520000    1.000000000000

      7   D      14             0.3130000    1.000000000000

 O         

      8   S      15          8588.5000000    0.001895150083
      8   S      16          1297.2300000    0.014385900631
      8   S      17           299.2960000    0.070732003103
      8   S      18            87.3771000    0.240001010530
      8   S      19            25.6789000    0.594797026097
      8   S      20             3.7400400    0.280802012320

      9   L      21            42.1175000    0.113889012440    0.036511397380
      9   L      22             9.6283700    0.920811100576    0.237152982984
      9   L      23             2.8533200   -0.003274470358    0.819701941186

     10   L      24             0.9056610    1.000000000000    1.000000000000

     11   L      25             0.2556110    1.000000000000    1.000000000000

     12   L      26             0.0845000    1.000000000000    1.000000000000

     13   D      27             2.5840000    1.000000000000

     14   D      28             0.6460000    1.000000000000

 C         

     15   S      29          4563.2400000    0.001966650249
     15   S      30           682.0240000    0.015230601932
     15   S      31           154.9730000    0.076126909656
     15   S      32            44.4553000    0.260801033080
     15   S      33            13.0290000    0.616462078191
     15   S      34             1.8277300    0.221006028032

     16   L      35            20.9642000    0.114660080729    0.040248692673
     16   L      36             4.8033100    0.919999647749    0.237593956746
     16   L      37             1.4593300   -0.003030682134    0.815853851473

     17   L      38             0.4834560    1.000000000000    1.000000000000

     18   L      39             0.1455850    1.000000000000    1.000000000000

     19   L      40             0.0438000    1.000000000000    1.000000000000

     20   D      41             1.2520000    1.000000000000

     21   D      42             0.3130000    1.000000000000

 C         

     22   S      43          4563.2400000    0.001966650249
     22   S      44           682.0240000    0.015230601932
     22   S      45           154.9730000    0.076126909656
     22   S      46            44.4553000    0.260801033080
     22   S      47            13.0290000    0.616462078191
     22   S      48             1.8277300    0.221006028032

     23   L      49            20.9642000    0.114660080729    0.040248692673
     23   L      50             4.8033100    0.919999647749    0.237593956746
     23   L      51             1.4593300   -0.003030682134    0.815853851473

     24   L      52             0.4834560    1.000000000000    1.000000000000

     25   L      53             0.1455850    1.000000000000    1.000000000000

     26   L      54             0.0438000    1.000000000000    1.000000000000

     27   D      55             1.2520000    1.000000000000

     28   D      56             0.3130000    1.000000000000

 O         

     29   S      57          8588.5000000    0.001895150083
     29   S      58          1297.2300000    0.014385900631
     29   S      59           299.2960000    0.070732003103
     29   S      60            87.3771000    0.240001010530
     29   S      61            25.6789000    0.594797026097
     29   S      62             3.7400400    0.280802012320

     30   L      63            42.1175000    0.113889012440    0.036511397380
     30   L      64             9.6283700    0.920811100576    0.237152982984
     30   L      65             2.8533200   -0.003274470358    0.819701941186

     31   L      66             0.9056610    1.000000000000    1.000000000000

     32   L      67             0.2556110    1.000000000000    1.000000000000

     33   L      68             0.0845000    1.000000000000    1.000000000000

     34   D      69             2.5840000    1.000000000000

     35   D      70             0.6460000    1.000000000000

 H         

     36   S      71            33.8650000    0.025493814541
     36   S      72             5.0947900    0.190373108582
     36   S      73             1.1587900    0.852161486043

     37   S      74             0.3258400    1.000000000000

     38   S      75             0.1027410    1.000000000000

     39   P      76             0.7500000    1.000000000000

 H         

     40   S      77            33.8650000    0.025493814541
     40   S      78             5.0947900    0.190373108582
     40   S      79             1.1587900    0.852161486043

     41   S      80             0.3258400    1.000000000000

     42   S      81             0.1027410    1.000000000000

     43   P      82             0.7500000    1.000000000000

 H         

     44   S      83            33.8650000    0.025493814541
     44   S      84             5.0947900    0.190373108582
     44   S      85             1.1587900    0.852161486043

     45   S      86             0.3258400    1.000000000000

     46   S      87             0.1027410    1.000000000000

     47   P      88             0.7500000    1.000000000000

 H         

     48   S      89            33.8650000    0.025493814541
     48   S      90             5.0947900    0.190373108582
     48   S      91             1.1587900    0.852161486043

     49   S      92             0.3258400    1.000000000000

     50   S      93             0.1027410    1.000000000000

     51   P      94             0.7500000    1.000000000000

 TOTAL NUMBER OF BASIS SET SHELLS             =   51
 NUMBER OF CARTESIAN GAUSSIAN BASIS FUNCTIONS =  169
 NUMBER OF ELECTRONS                          =   38
 CHARGE OF MOLECULE                           =    0
 SPIN MULTIPLICITY                            =    1
 NUMBER OF OCCUPIED ORBITALS (ALPHA)          =   19
 NUMBER OF OCCUPIED ORBITALS (BETA )          =   19
 TOTAL NUMBER OF ATOMS                        =    9
 THE NUCLEAR REPULSION ENERGY IS      166.0641960723

 SELECTED MURRAY-HANDY-LAMING RADIAL GRID

 LEGACY BECKE'S FUZZY CELL METHOD

 SELECTED ORIGINAL BECKE'S PARTITION FUNCTION

     LEBEDEV GRID-BASED DFT OPTIONS
     ------------------------------
     DFTTYP=B3LYP   
     NRAD  =      96     NLEB  =     302
     NRAD0 =      24     NLEB0 =     110
     SWOFF =    5.00E-03 (PURE SCF -> DFT)
     SWITCH=    3.00E-04 (COARSE -> TIGHT GRID)
     THRESH=    0.00E+00 GTHRE=    1.00E+00

 GRIMME'S EMPIRICAL DISPERSION CORRECTION= F

     $CONTRL OPTIONS
     ---------------
 SCFTYP=RHF          RUNTYP=OPTIMIZE     EXETYP=RUN     
 MPLEVL=       0     CITYP =NONE         CCTYP =NONE         VBTYP =NONE    
 DFTTYP=B3LYP        TDDFT =NONE    
 MULT  =       1     ICHARG=       0     NZVAR =       0     COORD =UNIQUE  
 PP    =NONE         RELWFN=NONE         LOCAL =NONE         NUMGRD=       F
 ISPHER=      -1     NOSYM =       0     MAXIT =      30     UNITS =ANGS    
 PLTORB=       F     MOLPLT=       F     AIMPAC=       F     FRIEND=        
 NPRINT=       7     IREST =       0     GEOM  =INPUT   
 NORMF =       0     NORMP =       0     ITOL  =      20     ICUT  =       9
 INTTYP=BEST         GRDTYP=BEST         QMTTOL= 1.0E-06

     $SYSTEM OPTIONS
     ---------------
  REPLICATED MEMORY=     1000000 WORDS (ON EVERY NODE).
 DISTRIBUTED MEMDDI=           0 MILLION WORDS IN AGGREGATE,
 MEMDDI DISTRIBUTED OVER   1 PROCESSORS IS           0 WORDS/PROCESSOR.
 TOTAL MEMORY REQUESTED ON EACH PROCESSOR=     1000000 WORDS.
 TIMLIM=      525600.00 MINUTES, OR     365.0 DAYS.
 PARALL= F  BALTYP=  DLB     KDIAG=    0  COREFL= F
 MXSEQ2=     300 MXSEQ3=     150  mem10=         0  mem22=         0

 Using Gaussians for PCM contribution to MEP, params: 0.10000E+01 0.10000E-07

          ----------------
          PROPERTIES INPUT
          ----------------

     MOMENTS            FIELD           POTENTIAL          DENSITY
 IEMOM =       1   IEFLD =       0   IEPOT =       0   IEDEN =       0
 WHERE =COMASS     WHERE =NUCLEI     WHERE =NUCLEI     WHERE =NUCLEI  
 OUTPUT=BOTH       OUTPUT=BOTH       OUTPUT=BOTH       OUTPUT=BOTH    
 IEMINT=       0   IEFINT=       0                     IEDINT=       0
                                                       MORB  =       0
          EXTRAPOLATION IN EFFECT
          DIIS IN EFFECT
 ORBITAL PRINTING OPTION: NPREO=     1   169     2     1

     -------------------------------
     INTEGRAL TRANSFORMATION OPTIONS
     -------------------------------
     NWORD  =            0
     CUTOFF = 1.0E-09     MPTRAN =       0
     DIRTRF =       T     AOINTS =DUP     

          ----------------------
          INTEGRAL INPUT OPTIONS
          ----------------------
 NOPK  =       1 NORDER=       0 SCHWRZ=       T

     ------------------------------------------
     THE POINT GROUP IS C1 , NAXIS= 0, ORDER= 1
     ------------------------------------------

     DIMENSIONS OF THE SYMMETRY SUBSPACES ARE
 A   =  169

 ..... DONE SETTING UP THE RUN .....
 STEP CPU TIME =     0.02 TOTAL CPU TIME =          0.0 (      0.0 MIN)
 TOTAL WALL CLOCK TIME=          0.0 SECONDS, CPU UTILIZATION IS    66.67%


          -----------------------------
          STATIONARY POINT LOCATION RUN
          -----------------------------

 OBTAINING INITIAL HESSIAN, HESS=GUESS   
 CARTESIAN COORDINATE OPTIMIZATION USING BADGER'S RULE FORCE CONSTANT GUESS

          PARAMETERS CONTROLLING GEOMETRY SEARCH ARE
          METHOD =QA                  UPHESS =BFGS    
          NNEG   =         0          NFRZ   =         0
          NSTEP  =        20          IFOLOW =         1
          HESS   =GUESS               RESTAR =         F
          IHREP  =         0          HSSEND =         F
          NPRT   =         0          NPUN   =         0
          OPTTOL = 1.000E-04          RMIN   = 1.500E-03
          RMAX   = 1.000E-01          RLIM   = 7.000E-02
          DXMAX  = 3.000E-01          PURIFY =         F
          MOVIE  =         F          TRUPD  =         T
          TRMAX  = 5.000E-01          TRMIN  = 5.000E-02
          ITBMAT =         5          STPT   =         F
          STSTEP = 1.000E-02          PROJCT=          T

 BEGINNING GEOMETRY SEARCH POINT NSERCH=   0 ...

 COORDINATES OF ALL ATOMS ARE (ANGS)
   ATOM   CHARGE       X              Y              Z
 ------------------------------------------------------------
 C           6.0  -0.6024700000  -0.0001900000  -0.0695300000
 O           8.0  -1.9073500000   0.0003100000  -0.0873800000
 C           6.0   0.5008300000  -1.0595400000  -0.0447100000
 C           6.0   0.5017600000   1.0584500000  -0.0603000000
 O           8.0   1.4924100000  -0.0007800000  -0.0302400000
 H           1.0   0.5653700000  -1.6860800000  -0.9394900000
 H           1.0   0.5328300000  -1.6810100000   0.8552800000
 H           1.0   0.5336400000   1.6935000000   0.8301400000
 H           1.0   0.5669600000   1.6715800000  -0.9642800000

          ********************
          1 ELECTRON INTEGRALS
          ********************
 ...... END OF ONE-ELECTRON INTEGRALS ......
 STEP CPU TIME =     0.01 TOTAL CPU TIME =          0.0 (      0.0 MIN)
 TOTAL WALL CLOCK TIME=          0.0 SECONDS, CPU UTILIZATION IS    75.00%

          -------------
          GUESS OPTIONS
          -------------
          GUESS =MOREAD            NORB  =      19          NORDER=       0
          MIX   =       F          PRTMO =       F          PUNMO =       F
          TOLZ  = 1.0E-08          TOLE  = 1.0E-05
          SYMDEN=       F          PURIFY=       F

 INITIAL GUESS ORBITALS GENERATED BY MOREAD   ROUTINE.

 SYMMETRIES FOR INITIAL GUESS ORBITALS FOLLOW.   BOTH SET(S).
    19 ORBITALS ARE OCCUPIED (    5 CORE ORBITALS).
     1=A        2=A        3=A        4=A        5=A        6=A        7=A   
     8=A        9=A       10=A       11=A       12=A       13=A       14=A   
    15=A       16=A       17=A       18=A       19=A       20=A       21=A   
    22=A       23=A       24=A       25=A       26=A       27=A       28=A   
    29=A       30=A       31=A       32=A       33=A       34=A       35=A   
    36=A       37=A       38=A       39=A       40=A       41=A       42=A   
    43=A       44=A       45=A       46=A       47=A       48=A       49=A   
    50=A       51=A       52=A       53=A       54=A       55=A       56=A   
    57=A       58=A       59=A       60=A       61=A       62=A       63=A   
    64=A       65=A       66=A       67=A       68=A       69=A       70=A   
    71=A       72=A       73=A       74=A       75=A       76=A       77=A   
    78=A       79=A       80=A       81=A       82=A       83=A       84=A   
    85=A       86=A       87=A       88=A       89=A       90=A       91=A   
    92=A       93=A       94=A       95=A       96=A       97=A       98=A   
    99=A      100=A      101=A      102=A      103=A      104=A      105=A   
   106=A      107=A      108=A      109=A      110=A      111=A      112=A   
   113=A      114=A      115=A      116=A      117=A      118=A      119=A   
   120=A      121=A      122=A      123=A      124=A      125=A      126=A   
   127=A      128=A      129=A      130=A      131=A      132=A      133=A   
   134=A      135=A      136=A      137=A      138=A      139=A      140=A   
   141=A      142=A      143=A      144=A      145=A      146=A      147=A   
   148=A      149=A      150=A      151=A      152=A      153=A      154=A   
   155=A      156=A      157=A      158=A      159=A      160=A      161=A   
   162=A      163=A      164=A      165=A      166=A      167=A      168=A   
   169=A   
 ...... END OF INITIAL ORBITAL SELECTION ......
 STEP CPU TIME =     0.02 TOTAL CPU TIME =          0.0 (      0.0 MIN)
 TOTAL WALL CLOCK TIME=          0.0 SECONDS, CPU UTILIZATION IS   100.00%

                    ----------------------
                    AO INTEGRAL TECHNOLOGY
                    ----------------------
     S,P,L SHELL ROTATED AXIS INTEGRALS, REPROGRAMMED BY
        KAZUYA ISHIMURA (IMS) AND JOSE SIERRA (SYNSTAR).
     S,P,D,L SHELL ROTATED AXIS INTEGRALS PROGRAMMED BY
        KAZUYA ISHIMURA (INSTITUTE FOR MOLECULAR SCIENCE).
     S,P,D,F,G SHELL TO TOTAL QUARTET ANGULAR MOMENTUM SUM 5,
        ERIC PROGRAM BY GRAHAM FLETCHER (ELORET AND NASA ADVANCED
        SUPERCOMPUTING DIVISION, AMES RESEARCH CENTER).
     S,P,D,F,G,L SHELL GENERAL RYS QUADRATURE PROGRAMMED BY
        MICHEL DUPUIS (PACIFIC NORTHWEST NATIONAL LABORATORY).

          --------------------
          2 ELECTRON INTEGRALS
          --------------------

 DIRECT SCF METHOD SKIPS INTEGRAL STORAGE ON DISK.
 DIRECT TRANSFORMATION SKIPS AO INTEGRAL STORAGE ON DISK.
  ...... END OF TWO-ELECTRON INTEGRALS .....
 STEP CPU TIME =     0.02 TOTAL CPU TIME =          0.1 (      0.0 MIN)
 TOTAL WALL CLOCK TIME=          0.1 SECONDS, CPU UTILIZATION IS   100.00%

          --------------------------
             R-B3LYP SCF CALCULATION
          --------------------------

     NUCLEAR ENERGY =       166.0641960723
     MAXIT =   30     NPUNCH=    2
     EXTRAP=T  DAMP=F  SHIFT=F  RSTRCT=F  DIIS=T  DEM=F  SOSCF=F
         DENSITY MATRIX CONVERGENCE THRESHOLD=  2.00E-05
     COARSE -> FINE DFT GRID SWITCH THRESHOLD=  3.00E-04 (SWITCH IN $DFT)
                   HF -> DFT SWITCH THRESHOLD=  0.00E+00 (SWOFF IN $DFT)
     MEMORY REQUIRED FOR RHF ITERS=    582591 WORDS.

 DIRECT SCF CALCULATION, SCHWRZ=T   FDIFF=T,  DIRTHR=  0.00E+00 NITDIR=10
 SCHWARZ INEQUALITY OVERHEAD:     14244 INTEGRALS, T=        0.00

 DFT CODE IS SWITCHING FROM THE FINE GRID NRAD= 96,  NLEB=  302
                      TO THE COARSE GRID NRAD0= 24, NLEB0=  110

     EXCHANGE FUNCTIONAL   =B88&HFX   
     CORRELATION FUNCTIONAL=LYP88&VWN5
     DFT THRESHOLD         =.153E-07
     GRID CHANGE THRESHOLD =.300E-03
 FOR AN EULER-MACLAURIN QUADRATURE USING  96 RADIAL POINTS:
 SMALLEST GAUSSIAN PRIMITIVE EXPONENT=        0.0438000000 OF TYPE -P-
 ON ATOM NUMBER   1 HAS RADIAL NORMALIZATION=  1.000000
  LARGEST GAUSSIAN PRIMITIVE EXPONENT=     8588.5000000000 OF TYPE -S-
 ON ATOM NUMBER   2 HAS RADIAL NORMALIZATION=  1.000000

                                                                                   NONZERO     BLOCKS
 ITER EX DEM     TOTAL ENERGY        E CHANGE  DENSITY CHANGE    DIIS ERROR      INTEGRALS    SKIPPED
          * * *   INITIATING DIIS PROCEDURE   * * *
   1  0  0     -267.0390633098  -267.0390633098   0.033875274   0.037224396       89931085      96133
   2  1  0     -267.0455637605    -0.0065004507   0.029875388   0.028408567       89054987     129668
   3  2  0     -267.0433656747     0.0021980858   0.018311840   0.035353873       88543058     139158
   4  3  0     -267.0476700375    -0.0043043628   0.005949634   0.008230008       88296467     143582
   5  4  0     -267.0478210304    -0.0001509929   0.001160675   0.001319301       87433214     161759
   6  5  0     -267.0478274355    -0.0000064051   0.000171068   0.000179324       86347629     181044
 DFT CODE IS SWITCHING BACK TO THE FINE GRID
          * * *   INITIATING DIIS PROCEDURE   * * *
   7  6  0     -267.0510566759    -0.0032292404   0.007853154   0.002708592       89928222      96139
   8  7  0     -267.0510987027    -0.0000420268   0.000928594   0.000768951       88198978     149953
   9  8  0     -267.0510913850     0.0000073177   0.000686202   0.001675687       86299864     181665
  10  9  0     -267.0511007329    -0.0000093479   0.000118638   0.000191476       85820055     189338
  11 10  0     -267.0511009472    -0.0000002143   0.000030231   0.000068395       83704485     220594
  12 11  0     -267.0511009652    -0.0000000180   0.000013255   0.000016928       80914371     254664
  13 12  0     -267.0511009664    -0.0000000013   0.000004337   0.000004721       77857672     287321

          -----------------
          DENSITY CONVERGED
          -----------------
     TIME TO FORM FOCK OPERATORS=      72.6 SECONDS (       5.6 SEC/ITER)
     FOCK TIME ON FIRST ITERATION=       3.6, LAST ITERATION=       7.2
     TIME TO SOLVE SCF EQUATIONS=       0.3 SECONDS (       0.0 SEC/ITER)

 FINAL R-B3LYP ENERGY IS     -267.0511009664 AFTER  13 ITERATIONS
 DFT EXCHANGE + CORRELATION ENERGY =       -28.0446579826
 TOTAL ELECTRON NUMBER             =        37.9996882227

          ------------
          EIGENVECTORS
          ------------

                      1          2          3          4          5
                  -19.1573   -19.1538   -10.3039   -10.2549   -10.2549
                     A          A          A          A          A   
    1  C  1  S    0.000004   0.000030   0.565296  -0.000781  -0.001647
    2  C  1  S   -0.000008  -0.000129   0.453378  -0.000529  -0.001114
    3  C  1  X    0.000077  -0.000120  -0.000108   0.000150   0.000317
    4  C  1  Y   -0.000000   0.000000  -0.000000  -0.000160   0.000076
    5  C  1  Z    0.000001  -0.000002  -0.000002   0.000003   0.000004
    6  C  1  S   -0.003386  -0.001359   0.030026   0.001356   0.002859
    7  C  1  X   -0.000655  -0.001147  -0.000548  -0.000406  -0.000855
    8  C  1  Y    0.000000   0.000000   0.000000  -0.000573   0.000273
    9  C  1  Z   -0.000011  -0.000015  -0.000004  -0.000002  -0.000015
   10  C  1  S    0.014080   0.006123   0.066120  -0.006137  -0.012939
   11  C  1  X    0.008138   0.007866  -0.005795  -0.003405  -0.007186
   12  C  1  Y   -0.000003  -0.000004   0.000003   0.005435  -0.002575
   13  C  1  Z    0.000123   0.000111  -0.000066  -0.000092  -0.000089
   14  C  1  S   -0.023171   0.008259  -0.016738  -0.003177  -0.006591
   15  C  1  X   -0.005480  -0.002909  -0.006303  -0.000443  -0.000912
   16  C  1  Y    0.000001   0.000001   0.000001   0.003562  -0.001701
   17  C  1  Z   -0.000101  -0.000039  -0.000087  -0.000031   0.000004
   18  C  1 XX   -0.000177   0.000038  -0.011004   0.000119   0.000250
   19  C  1 YY   -0.000139  -0.000108  -0.012220  -0.000034  -0.000072
   20  C  1 ZZ   -0.000004  -0.000139  -0.012548   0.000168   0.000355
   21  C  1 XY    0.000000  -0.000000  -0.000001   0.000010  -0.000005
   22  C  1 XZ   -0.000003   0.000002   0.000025  -0.000001  -0.000002
   23  C  1 YZ    0.000001  -0.000000  -0.000003   0.000002   0.000003
   24  C  1 XX   -0.002686   0.001227  -0.016652  -0.000290  -0.000616
   25  C  1 YY   -0.001176  -0.001902  -0.019735   0.000785   0.001660
   26  C  1 ZZ   -0.001898  -0.001456  -0.019925   0.000785   0.001657
   27  C  1 XY    0.000001  -0.000001  -0.000001   0.003735  -0.001770
   28  C  1 XZ   -0.000021   0.000047   0.000061  -0.000046  -0.000026
   29  C  1 YZ   -0.000006   0.000004  -0.000002   0.000053  -0.000025
   30  O  2  S    0.000137   0.552682  -0.000055  -0.000000  -0.000001
   31  O  2  S    0.000099   0.463579  -0.000088   0.000002   0.000004
   32  O  2  X   -0.000018   0.001556   0.000283   0.000008   0.000018
   33  O  2  Y    0.000000  -0.000001  -0.000000  -0.000080   0.000038
   34  O  2  Z   -0.000000   0.000021   0.000004   0.000001   0.000000
   35  O  2  S   -0.000126   0.021276   0.000977   0.000353   0.000742
   36  O  2  X    0.000080  -0.001441  -0.000978   0.000027   0.000056
   37  O  2  Y   -0.000000   0.000001   0.000000   0.000279  -0.000132
   38  O  2  Z    0.000002  -0.000019  -0.000013  -0.000002   0.000001
   39  O  2  S    0.002878   0.034312  -0.006332  -0.001142  -0.002406
   40  O  2  X    0.000878   0.001452  -0.003917  -0.000513  -0.001084
   41  O  2  Y   -0.000000  -0.000000   0.000002   0.001339  -0.000635
   42  O  2  Z    0.000003   0.000021  -0.000051  -0.000016  -0.000009
   43  O  2  S    0.002590  -0.010242  -0.012823  -0.001075  -0.002275
   44  O  2  X    0.001030  -0.000077  -0.003754  -0.000485  -0.001026
   45  O  2  Y   -0.000000   0.000000   0.000001  -0.000971   0.000462
   46  O  2  Z    0.000020  -0.000000  -0.000054  -0.000001  -0.000019
   47  O  2 XX   -0.000020  -0.006641   0.000136   0.000027   0.000057
   48  O  2 YY   -0.000011  -0.006854  -0.000084  -0.000005  -0.000011
   49  O  2 ZZ   -0.000021  -0.006782  -0.000063  -0.000003  -0.000006
   50  O  2 XY    0.000000  -0.000000  -0.000000  -0.000162   0.000077
   51  O  2 XZ    0.000001   0.000002   0.000003   0.000002   0.000000
   52  O  2 YZ   -0.000000   0.000001   0.000000  -0.000002   0.000001
   53  O  2 XX   -0.000101  -0.013071  -0.001995  -0.000029  -0.000064
   54  O  2 YY   -0.000118  -0.012493   0.000842   0.000198   0.000419
   55  O  2 ZZ   -0.000069  -0.012633   0.000793   0.000207   0.000436
   56  O  2 XY   -0.000000   0.000000   0.000001   0.001017  -0.000482
   57  O  2 XZ   -0.000004  -0.000006  -0.000042  -0.000011  -0.000005
   58  O  2 YZ    0.000000  -0.000001  -0.000000   0.000013  -0.000006
   59  C  3  S    0.000006  -0.000001   0.001190   0.532414   0.189871
   60  C  3  S   -0.000023   0.000006   0.001141   0.426744   0.152199
   61  C  3  X    0.000063   0.000024  -0.000101   0.000495   0.000064
   62  C  3  Y   -0.000019   0.000053   0.000382   0.000602  -0.000090
   63  C  3  Z    0.000001  -0.000000  -0.000002   0.000007   0.000003
   64  C  3  S    0.000178   0.000259   0.004267   0.027602   0.008860
   65  C  3  X    0.000213  -0.000056  -0.000138  -0.000767   0.000470
   66  C  3  Y    0.000580  -0.000284  -0.001283  -0.000331   0.000724
   67  C  3  Z    0.000005   0.000002  -0.000001  -0.000018  -0.000003
   68  C  3  S   -0.009144  -0.006185  -0.009615   0.068677   0.027458
   69  C  3  X    0.000837  -0.000687   0.001927   0.000433   0.001166
   70  C  3  Y   -0.002684  -0.002971  -0.002330   0.001777   0.003822
   71  C  3  Z    0.000033   0.000008   0.000022  -0.000015   0.000014
   72  C  3  S    0.013178  -0.002744   0.007936   0.015759  -0.000440
   73  C  3  X   -0.001131   0.001132  -0.001377  -0.000662  -0.000374
   74  C  3  Y    0.003267  -0.000306   0.001816   0.003051   0.000039
   75  C  3  Z   -0.000026   0.000018  -0.000039  -0.000024  -0.000010
   76  C  3 XX    0.000195  -0.000001  -0.000012  -0.011678  -0.004340
   77  C  3 YY    0.000239   0.000059   0.000102  -0.011156  -0.003931
   78  C  3 ZZ   -0.000063  -0.000021   0.000304  -0.011382  -0.004045
   79  C  3 XY    0.000317   0.000004   0.000228  -0.000020  -0.000020
   80  C  3 XZ    0.000005   0.000001  -0.000008  -0.000006  -0.000006
   81  C  3 YZ    0.000005  -0.000000   0.000004  -0.000002  -0.000002
   82  C  3 XX    0.000659   0.000741   0.001235  -0.019601  -0.007510
   83  C  3 YY    0.000477  -0.000634   0.001045  -0.019468  -0.005102
   84  C  3 ZZ   -0.000445   0.000294   0.004558  -0.017394  -0.007461
   85  C  3 XY    0.000218  -0.000124   0.000715  -0.000166   0.000442
   86  C  3 XZ    0.000021   0.000008  -0.000074  -0.000041  -0.000003
   87  C  3 YZ   -0.000003   0.000004   0.000031   0.000015  -0.000007
   88  C  4  S    0.000006  -0.000001   0.001190  -0.189874   0.532413
   89  C  4  S   -0.000023   0.000006   0.001140  -0.152180   0.426751
   90  C  4  X    0.000063   0.000024  -0.000101  -0.000264   0.000424
   91  C  4  Y    0.000019  -0.000053  -0.000382   0.000451  -0.000409
   92  C  4  Z    0.000000   0.000001   0.000003  -0.000009   0.000014
   93  C  4  S    0.000177   0.000258   0.004266  -0.010610   0.026975
   94  C  4  X    0.000213  -0.000055  -0.000137   0.000849  -0.000298
   95  C  4  Y   -0.000581   0.000284   0.001283  -0.000771  -0.000202
   96  C  4  Z    0.000013  -0.000003  -0.000021   0.000021  -0.000015
   97  C  4  S   -0.009139  -0.006183  -0.009616  -0.022176   0.070570
   98  C  4  X    0.000840  -0.000685   0.001928   0.000632   0.001069
   99  C  4  Y    0.002682   0.002972   0.002329  -0.001838  -0.003793
  100  C  4  Z   -0.000006  -0.000035  -0.000013   0.000049   0.000050
  101  C  4  S    0.013184  -0.002743   0.007944  -0.010242   0.011962
  102  C  4  X   -0.001134   0.001132  -0.001379   0.000121  -0.000756
  103  C  4  Y   -0.003268   0.000304  -0.001816   0.001885  -0.002392
  104  C  4  Z    0.000022   0.000013  -0.000011  -0.000021   0.000010
  105  C  4 XX    0.000195  -0.000001  -0.000012   0.004028  -0.011789
  106  C  4 YY    0.000240   0.000059   0.000102   0.004015  -0.011126
  107  C  4 ZZ   -0.000063  -0.000021   0.000304   0.004070  -0.011374
  108  C  4 XY   -0.000317  -0.000004  -0.000228   0.000003   0.000028
  109  C  4 XZ    0.000009   0.000001  -0.000005  -0.000001  -0.000010
  110  C  4 YZ   -0.000011  -0.000001  -0.000001   0.000001  -0.000001
  111  C  4 XX    0.000659   0.000741   0.001234   0.006583  -0.019933
  112  C  4 YY    0.000476  -0.000635   0.001047   0.008367  -0.018306
  113  C  4 ZZ   -0.000446   0.000294   0.004557   0.005225  -0.018194
  114  C  4 XY   -0.000218   0.000122  -0.000716  -0.000446  -0.000150
  115  C  4 XZ    0.000025   0.000006  -0.000065   0.000031  -0.000032
  116  C  4 YZ   -0.000013   0.000012   0.000029  -0.000038  -0.000005
  117  O  5  S    0.552709  -0.000132  -0.000003  -0.000008  -0.000016
  118  O  5  S    0.463365  -0.000126   0.000049  -0.000063  -0.000132
  119  O  5  X   -0.001643   0.000025   0.000185  -0.000069  -0.000145
  120  O  5  Y    0.000001  -0.000000  -0.000000  -0.000042   0.000020
  121  O  5  Z   -0.000038   0.000000   0.000004  -0.000001  -0.000003
  122  O  5  S    0.021801  -0.000103   0.000676   0.000865   0.001825
  123  O  5  X    0.001253  -0.000110  -0.000621   0.000050   0.000106
  124  O  5  Y   -0.000000   0.000000   0.000000  -0.000358   0.000170
  125  O  5  Z    0.000029  -0.000001  -0.000015   0.000003   0.000000
  126  O  5  S    0.035452   0.002138  -0.001415  -0.002620  -0.005521
  127  O  5  X   -0.001685  -0.000610  -0.000435   0.001396   0.002938
  128  O  5  Y    0.000000   0.000000   0.000001   0.001112  -0.000528
  129  O  5  Z   -0.000039  -0.000020   0.000004   0.000023   0.000072
  130  O  5  S   -0.010847   0.004475   0.000987  -0.007800  -0.016427
  131  O  5  X    0.000225  -0.001462  -0.000011   0.001896   0.003992
  132  O  5  Y   -0.000000   0.000000   0.000000   0.004282  -0.002035
  133  O  5  Z    0.000002  -0.000034   0.000005   0.000011   0.000102
  134  O  5 XX   -0.006865  -0.000004  -0.000112   0.000004   0.000009
  135  O  5 YY   -0.006849  -0.000010   0.000107  -0.000041  -0.000087
  136  O  5 ZZ   -0.007033  -0.000026   0.000060  -0.000066  -0.000139
  137  O  5 XY    0.000000  -0.000000   0.000000   0.000128  -0.000061
  138  O  5 XZ    0.000004  -0.000000  -0.000003   0.000001   0.000005
  139  O  5 YZ   -0.000002  -0.000000  -0.000000   0.000002  -0.000002
  140  O  5 XX   -0.013175  -0.000038   0.001643  -0.000299  -0.000628
  141  O  5 YY   -0.013200  -0.000080   0.000239  -0.000109  -0.000231
  142  O  5 ZZ   -0.012822  -0.000027   0.000319   0.000424   0.000893
  143  O  5 XY    0.000000   0.000000  -0.000001  -0.001219   0.000578
  144  O  5 XZ   -0.000008   0.000003   0.000025  -0.000011  -0.000047
  145  O  5 YZ    0.000003   0.000000   0.000001  -0.000021   0.000022
  146  H  6  S    0.000034  -0.000004  -0.000137  -0.000182   0.000050
  147  H  6  S    0.001205   0.000056  -0.002625  -0.002048  -0.000202
  148  H  6  S   -0.000124  -0.000080   0.001144  -0.005690  -0.001011
  149  H  6  X   -0.000056   0.000055   0.000104   0.000027  -0.000001
  150  H  6  Y    0.000177  -0.000010  -0.000684  -0.001141  -0.000134
  151  H  6  Z    0.000078   0.000050  -0.000363  -0.001213  -0.000481
  152  H  7  S    0.000032  -0.000003  -0.000135  -0.000181   0.000050
  153  H  7  S    0.001198   0.000055  -0.002610  -0.002024  -0.000206
  154  H  7  S   -0.000128  -0.000081   0.001153  -0.005690  -0.001014
  155  H  7  X   -0.000053   0.000057   0.000093  -0.000020  -0.000018
  156  H  7  Y    0.000177  -0.000010  -0.000684  -0.001135  -0.000126
  157  H  7  Z   -0.000079  -0.000049   0.000368   0.001216   0.000481
  158  H  8  S    0.000033  -0.000003  -0.000135   0.000153  -0.000108
  159  H  8  S    0.001199   0.000055  -0.002608   0.001121  -0.001695
  160  H  8  S   -0.000129  -0.000081   0.001152   0.002812  -0.005054
  161  H  8  X   -0.000053   0.000057   0.000093  -0.000002  -0.000027
  162  H  8  Y   -0.000179   0.000009   0.000689  -0.000627   0.000977
  163  H  8  Z   -0.000077  -0.000049   0.000358  -0.000387   0.001231
  164  H  9  S    0.000034  -0.000004  -0.000137   0.000154  -0.000109
  165  H  9  S    0.001205   0.000056  -0.002624   0.001142  -0.001715
  166  H  9  S   -0.000124  -0.000080   0.001142   0.002814  -0.005052
  167  H  9  X   -0.000057   0.000055   0.000104  -0.000018   0.000021
  168  H  9  Y   -0.000175   0.000011   0.000678  -0.000612   0.000950
  169  H  9  Z    0.000080   0.000050  -0.000373   0.000405  -0.001258

                      6          7          8          9         10
                   -1.0774    -1.0157    -0.7409    -0.7330    -0.5724
                     A          A          A          A          A   
    1  C  1  S   -0.032021  -0.053339   0.064731  -0.000018  -0.048211
    2  C  1  S   -0.046866  -0.077938   0.098117  -0.000028  -0.073455
    3  C  1  X    0.015751  -0.081761  -0.086659   0.000051   0.044232
    4  C  1  Y   -0.000004   0.000031   0.000049   0.060760  -0.000026
    5  C  1  Z    0.000301  -0.001132  -0.001187  -0.000448   0.000938
    6  C  1  S    0.107498   0.186095  -0.299411   0.000094   0.246993
    7  C  1  X    0.020250  -0.100844  -0.123638   0.000085   0.058892
    8  C  1  Y   -0.000002   0.000038   0.000068   0.091099  -0.000038
    9  C  1  Z    0.000392  -0.001397  -0.001711  -0.000669   0.001315
   10  C  1  S    0.106752   0.088520  -0.117014   0.000026   0.077265
   11  C  1  X    0.039826   0.023774  -0.045287   0.000076  -0.014245
   12  C  1  Y   -0.000056  -0.000010   0.000081   0.054667   0.000006
   13  C  1  Z    0.000548   0.000331  -0.000626  -0.000407  -0.000050
   14  C  1  S   -0.026402   0.028461  -0.072920   0.002044   0.055832
   15  C  1  X   -0.002814   0.001937  -0.018253   0.000501   0.005892
   16  C  1  Y   -0.000208   0.000006   0.000290   0.037840   0.000054
   17  C  1  Z   -0.000058   0.000008  -0.000275  -0.000272   0.000093
   18  C  1 XX    0.008768   0.019934  -0.002459   0.000006   0.007479
   19  C  1 YY   -0.000542  -0.003027  -0.009555  -0.000001   0.001103
   20  C  1 ZZ   -0.002249  -0.003949   0.000764  -0.000001   0.000581
   21  C  1 XY   -0.000003  -0.000010  -0.000002   0.007760  -0.000003
   22  C  1 XZ    0.000203   0.000373  -0.000055  -0.000057   0.000148
   23  C  1 YZ   -0.000015  -0.000008   0.000087   0.000122  -0.000005
   24  C  1 XX   -0.000496   0.002010  -0.036014   0.000035   0.059218
   25  C  1 YY   -0.004939  -0.020034  -0.022426   0.000002   0.006507
   26  C  1 ZZ   -0.009641  -0.011116  -0.013295   0.000007   0.014226
   27  C  1 XY   -0.000010  -0.000010   0.000021   0.020273  -0.000021
   28  C  1 XZ    0.000106   0.000221  -0.000366  -0.000150   0.000797
   29  C  1 YZ   -0.000039   0.000076   0.000077   0.000309   0.000067
   30  O  2  S   -0.018710  -0.108427  -0.035008   0.000011   0.017265
   31  O  2  S   -0.028704  -0.167389  -0.054366   0.000017   0.027049
   32  O  2  X    0.012994   0.063797  -0.011597   0.000010   0.033835
   33  O  2  Y   -0.000005  -0.000025   0.000007   0.011639  -0.000018
   34  O  2  Z    0.000184   0.000871  -0.000160  -0.000086   0.000578
   35  O  2  S    0.086171   0.496453   0.168224  -0.000068  -0.082913
   36  O  2  X    0.020722   0.100101  -0.013205   0.000011   0.044347
   37  O  2  Y   -0.000007  -0.000039   0.000009   0.017841  -0.000024
   38  O  2  Z    0.000293   0.001368  -0.000182  -0.000131   0.000776
   39  O  2  S    0.052387   0.334530   0.145021   0.000021  -0.132915
   40  O  2  X    0.009995   0.058708   0.001160   0.000029   0.004223
   41  O  2  Y   -0.000008  -0.000022   0.000008   0.013962  -0.000005
   42  O  2  Z    0.000111   0.000806   0.000016  -0.000102   0.000225
   43  O  2  S    0.007326   0.007326   0.009097  -0.000100  -0.022698
   44  O  2  X   -0.000151  -0.004083   0.000088  -0.000070   0.002936
   45  O  2  Y    0.000027  -0.000000  -0.000038  -0.012187  -0.000009
   46  O  2  Z    0.000026  -0.000053  -0.000011   0.000090   0.000019
   47  O  2 XX    0.002424   0.012189   0.002134  -0.000001   0.000532
   48  O  2 YY    0.000495   0.002601   0.001946  -0.000001  -0.001688
   49  O  2 ZZ    0.000609   0.003639   0.002472  -0.000001  -0.001736
   50  O  2 XY   -0.000001  -0.000004  -0.000000   0.000746  -0.000001
   51  O  2 XZ    0.000031   0.000135  -0.000005  -0.000005   0.000040
   52  O  2 YZ    0.000001   0.000009   0.000004   0.000011  -0.000000
   53  O  2 XX    0.005831   0.029143   0.005760  -0.000004  -0.001530
   54  O  2 YY    0.001591   0.004685   0.005012  -0.000013  -0.001839
   55  O  2 ZZ    0.002649   0.008124   0.005489  -0.000012  -0.002341
   56  O  2 XY   -0.000003  -0.000011   0.000002   0.004417  -0.000000
   57  O  2 XZ    0.000040   0.000335   0.000003  -0.000032   0.000052
   58  O  2 YZ    0.000009   0.000029   0.000004   0.000059  -0.000005
   59  C  3  S   -0.041639   0.003686   0.048155   0.078598   0.038718
   60  C  3  S   -0.060781   0.005320   0.072726   0.118094   0.059070
   61  C  3  X    0.019702  -0.013962   0.059793  -0.009711  -0.032773
   62  C  3  Y    0.039454  -0.006048  -0.008233   0.012541   0.117591
   63  C  3  Z    0.000176  -0.000216   0.001305  -0.000289  -0.000858
   64  C  3  S    0.160050  -0.003646  -0.211363  -0.339448  -0.169598
   65  C  3  X    0.025929  -0.023959   0.085175  -0.013454  -0.046852
   66  C  3  Y    0.062958  -0.008188  -0.016566   0.009963   0.161054
   67  C  3  Z    0.000204  -0.000386   0.001848  -0.000373  -0.001188
   68  C  3  S   -0.011690  -0.043297  -0.048548  -0.101556  -0.108178
   69  C  3  X    0.008846  -0.012532   0.033064  -0.007939  -0.026159
   70  C  3  Y    0.001691  -0.013307   0.003945   0.017170   0.091055
   71  C  3  Z    0.000217  -0.000117   0.000696  -0.000324  -0.000620
   72  C  3  S    0.012448  -0.017482   0.037120   0.035478  -0.040868
   73  C  3  X   -0.004108   0.004152  -0.006216  -0.021393   0.004249
   74  C  3  Y   -0.000490  -0.003301   0.010537   0.002605  -0.004123
   75  C  3  Z   -0.000068   0.000110  -0.000151  -0.000417   0.000145
   76  C  3 XX    0.003965   0.000153   0.000916  -0.005394   0.002428
   77  C  3 YY    0.008756  -0.001179  -0.004922  -0.003756   0.002898
   78  C  3 ZZ   -0.002649   0.000390  -0.002958  -0.005452  -0.010757
   79  C  3 XY    0.006507  -0.003600   0.011166  -0.001115  -0.001745
   80  C  3 XZ    0.000117   0.000007   0.000032  -0.000002   0.000293
   81  C  3 YZ    0.000064  -0.000057   0.000227  -0.000033  -0.000084
   82  C  3 XX    0.009958   0.010804  -0.010258  -0.018403   0.001837
   83  C  3 YY    0.013901  -0.000107  -0.013587  -0.014870  -0.001357
   84  C  3 ZZ   -0.007994   0.008031  -0.009343  -0.013835  -0.014966
   85  C  3 XY    0.005998  -0.006204   0.012087  -0.001357  -0.000416
   86  C  3 XZ    0.000341   0.000070  -0.000088  -0.000105   0.000349
   87  C  3 YZ   -0.000005  -0.000052   0.000312  -0.000045   0.000037
   88  C  4  S   -0.041642   0.003686   0.048106  -0.078627   0.038716
   89  C  4  S   -0.060785   0.005320   0.072653  -0.118135   0.059067
   90  C  4  X    0.019672  -0.013959   0.059815   0.009678  -0.032825
   91  C  4  Y   -0.039467   0.006058   0.008194   0.012538  -0.117587
   92  C  4  Z    0.000755  -0.000304   0.001180   0.000097   0.000874
   93  C  4  S    0.159997  -0.003646  -0.211101   0.339616  -0.169602
   94  C  4  X    0.025873  -0.023955   0.085215   0.013401  -0.046919
   95  C  4  Y   -0.062981   0.008204   0.016515   0.009963  -0.161049
   96  C  4  Z    0.001127  -0.000506   0.001598   0.000216   0.001184
   97  C  4  S   -0.011398  -0.043291  -0.048757   0.101279  -0.108117
   98  C  4  X    0.008848  -0.012522   0.033074   0.007875  -0.026186
   99  C  4  Y   -0.001720   0.013316  -0.003937   0.017274  -0.091062
  100  C  4  Z    0.000244  -0.000311   0.000747   0.000081   0.000709
  101  C  4  S    0.013565  -0.017482   0.035672  -0.037580  -0.041035
  102  C  4  X   -0.004272   0.004161  -0.005994   0.021752   0.004311
  103  C  4  Y    0.000281   0.003295  -0.010260   0.003059   0.004144
  104  C  4  Z   -0.000076   0.000063   0.000003   0.000383   0.000080
  105  C  4 XX    0.003956   0.000158   0.000905   0.005393   0.002433
  106  C  4 YY    0.008761  -0.001182  -0.004908   0.003764   0.002890
  107  C  4 ZZ   -0.002646   0.000388  -0.002949   0.005453  -0.010755
  108  C  4 XY   -0.006501   0.003599  -0.011171  -0.001112   0.001749
  109  C  4 XZ    0.000211  -0.000046   0.000199   0.000013   0.000272
  110  C  4 YZ   -0.000259   0.000084  -0.000196  -0.000003  -0.000152
  111  C  4 XX    0.009917   0.010813  -0.010239   0.018435   0.001835
  112  C  4 YY    0.013867  -0.000113  -0.013537   0.014888  -0.001369
  113  C  4 ZZ   -0.008026   0.008027  -0.009296   0.013877  -0.014974
  114  C  4 XY   -0.005986   0.006193  -0.012095  -0.001340   0.000412
  115  C  4 XZ    0.000434  -0.000022   0.000085   0.000127   0.000346
  116  C  4 YZ   -0.000370   0.000193  -0.000239  -0.000060  -0.000271
  117  O  5  S   -0.098398   0.027172  -0.063713   0.000018  -0.004407
  118  O  5  S   -0.151836   0.042138  -0.099124   0.000029  -0.007175
  119  O  5  X   -0.051874   0.010830   0.032640   0.000028  -0.043421
  120  O  5  Y    0.000017  -0.000004   0.000023   0.091048   0.000043
  121  O  5  Z   -0.001158   0.000255   0.000653  -0.000675  -0.000415
  122  O  5  S    0.452456  -0.127401   0.308284  -0.000092   0.027721
  123  O  5  X   -0.086197   0.018706   0.040914   0.000048  -0.064915
  124  O  5  Y    0.000028  -0.000006   0.000037   0.136548   0.000065
  125  O  5  Z   -0.001923   0.000441   0.000799  -0.001010  -0.000631
  126  O  5  S    0.271657  -0.068234   0.234888  -0.000033  -0.005937
  127  O  5  X   -0.051806   0.008429   0.027663  -0.000011  -0.042469
  128  O  5  Y    0.000006  -0.000003   0.000032   0.096069   0.000036
  129  O  5  Z   -0.001179   0.000177   0.000535  -0.000718  -0.000337
  130  O  5  S    0.022187   0.021000  -0.004257   0.000276   0.008345
  131  O  5  X    0.001883  -0.006895   0.006363  -0.000034   0.006495
  132  O  5  Y   -0.000035   0.000001   0.000027  -0.016504  -0.000015
  133  O  5  Z    0.000006  -0.000189   0.000159   0.000123   0.000082
  134  O  5 XX    0.007289  -0.001750   0.001875  -0.000004   0.002819
  135  O  5 YY    0.006417  -0.001730   0.005249   0.000001  -0.002130
  136  O  5 ZZ    0.001882  -0.000560   0.004068   0.000001  -0.000690
  137  O  5 XY   -0.000000  -0.000000  -0.000001  -0.005158  -0.000003
  138  O  5 XZ    0.000139  -0.000033  -0.000051   0.000038   0.000068
  139  O  5 YZ   -0.000038   0.000010  -0.000010  -0.000115   0.000012
  140  O  5 XX    0.027481  -0.006126   0.005073  -0.000012   0.016120
  141  O  5 YY    0.021286  -0.006752   0.019814   0.000003  -0.009795
  142  O  5 ZZ    0.006208  -0.002304   0.010780  -0.000001   0.000465
  143  O  5 XY    0.000001  -0.000001  -0.000001  -0.018260  -0.000013
  144  O  5 XZ    0.000557  -0.000098  -0.000125   0.000135   0.000306
  145  O  5 YZ   -0.000130   0.000038  -0.000076  -0.000425   0.000088
  146  H  6  S    0.013097  -0.000666  -0.034227  -0.065151  -0.085100
  147  H  6  S    0.025742  -0.004033  -0.043209  -0.082074  -0.107136
  148  H  6  S   -0.003709   0.002246  -0.004366  -0.010671  -0.014221
  149  H  6  X   -0.000019   0.000080   0.003088   0.000669  -0.000683
  150  H  6  Y    0.004828  -0.001114  -0.004530  -0.007270  -0.003179
  151  H  6  Z    0.003714  -0.000280  -0.005578  -0.010916  -0.012628
  152  H  7  S    0.013059  -0.000652  -0.034067  -0.065223  -0.084998
  153  H  7  S    0.025661  -0.004001  -0.042946  -0.082082  -0.106902
  154  H  7  S   -0.003705   0.002211  -0.004420  -0.010605  -0.014298
  155  H  7  X    0.000123   0.000066   0.002881   0.000272  -0.001139
  156  H  7  Y    0.004813  -0.001111  -0.004473  -0.007201  -0.003099
  157  H  7  Z   -0.003730   0.000281   0.005683   0.010980   0.012595
  158  H  8  S    0.013052  -0.000647  -0.034049   0.065244  -0.085022
  159  H  8  S    0.025660  -0.004000  -0.042923   0.082102  -0.106921
  160  H  8  S   -0.003802   0.002207  -0.004298   0.010614  -0.014296
  161  H  8  X    0.000124   0.000066   0.002881  -0.000271  -0.001142
  162  H  8  Y   -0.004871   0.001115   0.004553  -0.007369   0.003290
  163  H  8  Z   -0.003656   0.000263   0.005612  -0.010873   0.012548
  164  H  9  S    0.013100  -0.000666  -0.034183   0.065173  -0.085096
  165  H  9  S    0.025746  -0.004031  -0.043161   0.082103  -0.107129
  166  H  9  S   -0.003803   0.002245  -0.004250   0.010694  -0.014227
  167  H  9  X   -0.000025   0.000081   0.003092  -0.000677  -0.000678
  168  H  9  Y   -0.004771   0.001110   0.004438  -0.007108   0.002991
  169  H  9  Z    0.003785  -0.000297  -0.005638   0.011026  -0.012674

                     11         12         13         14         15
                   -0.5224    -0.4907    -0.4789    -0.4430    -0.4148
                     A          A          A          A          A   
    1  C  1  S   -0.000128   0.000011  -0.044664   0.000005   0.000002
    2  C  1  S   -0.000195   0.000017  -0.068265   0.000006   0.000004
    3  C  1  X   -0.001481  -0.000049  -0.122668   0.000030   0.000040
    4  C  1  Y    0.000622  -0.121277   0.000018   0.001297   0.144852
    5  C  1  Z    0.074927   0.000950  -0.002266   0.000015  -0.001062
    6  C  1  S    0.000833  -0.000055   0.213800  -0.000007  -0.000042
    7  C  1  X   -0.002176  -0.000065  -0.171391   0.000044   0.000062
    8  C  1  Y    0.000938  -0.177654   0.000022   0.001913   0.211935
    9  C  1  Z    0.113481   0.001393  -0.003237   0.000024  -0.001553
   10  C  1  S   -0.000473  -0.000012   0.078880  -0.000046   0.000168
   11  C  1  X   -0.001744  -0.000006  -0.032214  -0.000018   0.000173
   12  C  1  Y    0.000510  -0.053811   0.000017   0.000877   0.100390
   13  C  1  Z    0.065325   0.000444  -0.000967   0.000018  -0.000731
   14  C  1  S    0.000883   0.001719   0.089172  -0.000018   0.001783
   15  C  1  X    0.000577   0.000387   0.041666  -0.000018   0.000458
   16  C  1  Y   -0.000076  -0.032632   0.000119   0.000801   0.104184
   17  C  1  Z   -0.005308   0.000243   0.000495   0.000002  -0.000760
   18  C  1 XX   -0.000122  -0.000005   0.009021  -0.000004   0.000004
   19  C  1 YY    0.000049   0.000003   0.000318   0.000084  -0.000005
   20  C  1 ZZ    0.000111   0.000001   0.000326  -0.000082  -0.000000
   21  C  1 XY    0.000030  -0.004111  -0.000005  -0.000076   0.003459
   22  C  1 XZ    0.003719   0.000032   0.000115   0.000003  -0.000026
   23  C  1 YZ   -0.000002  -0.000041   0.000001   0.006416   0.000034
   24  C  1 XX   -0.000289  -0.000008  -0.004695   0.000008   0.000001
   25  C  1 YY    0.000238  -0.000003   0.003609   0.000228  -0.000018
   26  C  1 ZZ    0.000457  -0.000003   0.013016  -0.000217  -0.000016
   27  C  1 XY    0.000078   0.005896   0.000007  -0.000366   0.000789
   28  C  1 XZ    0.010803  -0.000038  -0.000334   0.000010  -0.000004
   29  C  1 YZ   -0.000004   0.000158   0.000082   0.017319  -0.000067
   30  O  2  S    0.000212  -0.000008   0.051218  -0.000008   0.000004
   31  O  2  S    0.000331  -0.000013   0.079498  -0.000012   0.000006
   32  O  2  X    0.000071  -0.000064   0.208292  -0.000045   0.000092
   33  O  2  Y    0.000309  -0.068752  -0.000096   0.001016   0.120874
   34  O  2  Z    0.037303   0.000539   0.002492   0.000012  -0.000885
   35  O  2  S   -0.000927   0.000031  -0.249717   0.000038  -0.000037
   36  O  2  X    0.000084  -0.000092   0.297887  -0.000065   0.000130
   37  O  2  Y    0.000458  -0.099089  -0.000138   0.001468   0.175345
   38  O  2  Z    0.055517   0.000777   0.003547   0.000018  -0.001284
   39  O  2  S   -0.001456   0.000098  -0.246628   0.000026   0.000061
   40  O  2  X   -0.000120  -0.000047   0.222922  -0.000054   0.000130
   41  O  2  Y    0.000363  -0.079247  -0.000102   0.001180   0.151052
   42  O  2  Z    0.044241   0.000622   0.002616   0.000015  -0.001105
   43  O  2  S   -0.000329  -0.000078  -0.052466   0.000006  -0.000071
   44  O  2  X   -0.000080  -0.000056   0.007992   0.000001  -0.000042
   45  O  2  Y   -0.000023   0.003136  -0.000022  -0.000007  -0.004851
   46  O  2  Z   -0.003452  -0.000025   0.000132  -0.000002   0.000035
   47  O  2 XX   -0.000025  -0.000003   0.004522  -0.000001   0.000003
   48  O  2 YY   -0.000025   0.000003  -0.007598   0.000005  -0.000004
   49  O  2 ZZ    0.000007   0.000002  -0.008125  -0.000002  -0.000002
   50  O  2 XY    0.000013  -0.002872  -0.000006   0.000032   0.003515
   51  O  2 XZ    0.001500   0.000022   0.000187   0.000001  -0.000026
   52  O  2 YZ   -0.000000  -0.000038  -0.000005   0.000295   0.000047
   53  O  2 XX   -0.000129  -0.000013   0.011183  -0.000002   0.000009
   54  O  2 YY    0.000008   0.000004  -0.015375  -0.000003  -0.000024
   55  O  2 ZZ    0.000198  -0.000002  -0.017630   0.000010  -0.000015
   56  O  2 XY    0.000067  -0.010401  -0.000014   0.000143   0.018450
   57  O  2 XZ    0.008362   0.000083   0.000383   0.000002  -0.000135
   58  O  2 YZ   -0.000002  -0.000148  -0.000019  -0.000533   0.000250
   59  C  3  S   -0.000107  -0.004754   0.010718  -0.000034   0.001724
   60  C  3  S   -0.000163  -0.007371   0.016403  -0.000050   0.003083
   61  C  3  X   -0.002440  -0.119862  -0.005180   0.003227   0.020450
   62  C  3  Y    0.000070  -0.037406  -0.042389  -0.001379  -0.127406
   63  C  3  Z    0.131182  -0.002293  -0.000336  -0.155393   0.001980
   64  C  3  S    0.000316   0.024876  -0.053799   0.000002  -0.015291
   65  C  3  X   -0.003432  -0.180778  -0.011490   0.004490   0.033493
   66  C  3  Y    0.000134  -0.050360  -0.063830  -0.001978  -0.184402
   67  C  3  Z    0.183034  -0.003478  -0.000565  -0.211764   0.002793
   68  C  3  S    0.001394   0.030852  -0.001750   0.000393  -0.014458
   69  C  3  X   -0.001720  -0.120937  -0.011654   0.002916   0.035035
   70  C  3  Y    0.000308  -0.019403  -0.042143  -0.001194  -0.125888
   71  C  3  Z    0.094511  -0.002390  -0.000309  -0.134083   0.002185
   72  C  3  S   -0.000347  -0.147182  -0.037233   0.002006   0.143854
   73  C  3  X   -0.000250  -0.004594   0.005318   0.000048  -0.037549
   74  C  3  Y   -0.000021  -0.039743  -0.007863   0.000298   0.006365
   75  C  3  Z    0.014849   0.000157   0.000175  -0.017311  -0.000484
   76  C  3 XX   -0.000066  -0.003438   0.003021  -0.000041  -0.012017
   77  C  3 YY   -0.000002   0.000029  -0.005447   0.000059   0.002180
   78  C  3 ZZ    0.000081   0.003476   0.000818  -0.000018   0.009135
   79  C  3 XY    0.000023  -0.011584  -0.001449  -0.000180  -0.001415
   80  C  3 XZ    0.001921  -0.000122   0.000047  -0.001103  -0.000436
   81  C  3 YZ   -0.002006  -0.000191   0.000017   0.010515  -0.000116
   82  C  3 XX   -0.000031   0.001395   0.005008  -0.000246  -0.018205
   83  C  3 YY    0.000085   0.001812  -0.019506  -0.000011   0.007687
   84  C  3 ZZ   -0.000278   0.008705   0.003208   0.000100   0.007923
   85  C  3 XY   -0.000402  -0.017912  -0.004581   0.000077   0.000105
   86  C  3 XZ   -0.001589  -0.000127   0.000066   0.002021  -0.000560
   87  C  3 YZ    0.020468  -0.000277   0.000019  -0.002596  -0.000024
   88  C  4  S   -0.000119   0.004732   0.010722   0.000038  -0.001733
   89  C  4  S   -0.000182   0.007338   0.016408   0.000055  -0.003097
   90  C  4  X   -0.002595   0.119843  -0.005115  -0.003284  -0.020511
   91  C  4  Y    0.001924  -0.037436   0.042385   0.000918  -0.127403
   92  C  4  Z    0.131116   0.003003  -0.000925   0.155429  -0.000100
   93  C  4  S    0.000330  -0.024697  -0.053790  -0.000004   0.015434
   94  C  4  X   -0.003658   0.180750  -0.011390  -0.004566  -0.033584
   95  C  4  Y    0.002633  -0.050409   0.063830   0.001148  -0.184381
   96  C  4  Z    0.182940   0.004442  -0.001458   0.211818  -0.000072
   97  C  4  S    0.001593  -0.031114  -0.001892  -0.000429   0.013801
   98  C  4  X   -0.001831   0.120878  -0.011588  -0.002961  -0.035154
   99  C  4  Y    0.001090  -0.019368   0.042163   0.000766  -0.125672
  100  C  4  Z    0.094477   0.002813  -0.000909   0.134117  -0.000336
  101  C  4  S   -0.000197   0.145404  -0.037873  -0.002011  -0.145737
  102  C  4  X   -0.000303   0.004865   0.005436  -0.000052   0.037876
  103  C  4  Y    0.000230  -0.039355   0.007974   0.000554   0.006752
  104  C  4  Z    0.014848   0.000451   0.000066   0.017302   0.000392
  105  C  4 XX   -0.000071   0.003422   0.003023   0.000042   0.012015
  106  C  4 YY    0.000052  -0.000016  -0.005448   0.000216  -0.002181
  107  C  4 ZZ    0.000030  -0.003465   0.000817  -0.000257  -0.009126
  108  C  4 XY    0.000016  -0.011585   0.001438  -0.000168  -0.001425
  109  C  4 XZ    0.001919   0.000296   0.000026   0.001111   0.000461
  110  C  4 YZ    0.002003  -0.000253   0.000093   0.010511  -0.000240
  111  C  4 XX   -0.000044  -0.001378   0.005024   0.000258   0.018269
  112  C  4 YY   -0.000463  -0.001754  -0.019496  -0.000052  -0.007660
  113  C  4 ZZ    0.000217  -0.008633   0.003217  -0.000029  -0.007856
  114  C  4 XY    0.000396  -0.017893   0.004551   0.000046   0.000102
  115  C  4 XZ   -0.001607   0.000389  -0.000006  -0.002023   0.000563
  116  C  4 YZ   -0.020464  -0.000431   0.000367  -0.002605  -0.000036
  117  O  5  S   -0.000062   0.000007  -0.023868  -0.000011   0.000010
  118  O  5  S   -0.000096   0.000012  -0.036839  -0.000017   0.000015
  119  O  5  X   -0.001878   0.000069   0.100579   0.000017   0.000009
  120  O  5  Y    0.000718   0.184002  -0.000014   0.000486   0.112707
  121  O  5  Z    0.111437  -0.001271   0.001624   0.000027  -0.000812
  122  O  5  S    0.000306  -0.000038   0.116080   0.000057  -0.000061
  123  O  5  X   -0.002747   0.000106   0.144174   0.000023   0.000020
  124  O  5  Y    0.001048   0.272824  -0.000020   0.000721   0.167976
  125  O  5  Z    0.162804  -0.001884   0.002312   0.000039  -0.001209
  126  O  5  S    0.000203  -0.000015   0.135580   0.000047   0.000042
  127  O  5  X   -0.002193   0.000052   0.111375   0.000017  -0.000050
  128  O  5  Y    0.000842   0.210900  -0.000009   0.000543   0.133928
  129  O  5  Z    0.132075  -0.001461   0.001706   0.000032  -0.000967
  130  O  5  S   -0.000758   0.000221   0.029986   0.000048   0.000331
  131  O  5  X    0.000442  -0.000040   0.007503  -0.000004  -0.000054
  132  O  5  Y   -0.000028  -0.036914   0.000005   0.000218   0.015515
  133  O  5  Z   -0.004660   0.000270   0.000093   0.000001  -0.000112
  134  O  5 XX    0.000115  -0.000005  -0.000672   0.000000  -0.000004
  135  O  5 YY    0.000025   0.000003   0.002862   0.000032   0.000002
  136  O  5 ZZ   -0.000123   0.000001   0.003713  -0.000031   0.000000
  137  O  5 XY   -0.000022  -0.006294   0.000001  -0.000072  -0.004737
  138  O  5 XZ   -0.003524   0.000044  -0.000097   0.000001   0.000034
  139  O  5 YZ    0.000000  -0.000142   0.000007   0.002483  -0.000117
  140  O  5 XX    0.000563  -0.000017  -0.008637   0.000004  -0.000013
  141  O  5 YY    0.000119   0.000012   0.012629   0.000151   0.000001
  142  O  5 ZZ   -0.000645   0.000003   0.009254  -0.000149  -0.000006
  143  O  5 XY   -0.000114  -0.022346   0.000005  -0.000311  -0.017796
  144  O  5 XZ   -0.017335   0.000153  -0.000368   0.000004   0.000129
  145  O  5 YZ   -0.000001  -0.000516  -0.000027   0.011747  -0.000456
  146  H  6  S   -0.077236   0.019810   0.006840   0.108654   0.064725
  147  H  6  S   -0.119078   0.020177   0.003421   0.165970   0.093439
  148  H  6  S   -0.017876   0.013056  -0.005213   0.046944   0.032352
  149  H  6  X    0.000706  -0.006510   0.000063  -0.001045   0.000609
  150  H  6  Y   -0.009023  -0.000391  -0.002763   0.011985  -0.000833
  151  H  6  Z   -0.007244   0.002586   0.000988   0.009233   0.008661
  152  H  7  S    0.077678   0.019520   0.006345  -0.107619   0.066569
  153  H  7  S    0.119687   0.019889   0.002702  -0.164472   0.096260
  154  H  7  S    0.017938   0.012844  -0.005464  -0.046559   0.033163
  155  H  7  X   -0.000452  -0.006406   0.000097   0.000741   0.000916
  156  H  7  Y    0.009011  -0.000425  -0.002820  -0.011932  -0.000682
  157  H  7  Z   -0.007400  -0.002814  -0.000948   0.009190  -0.008792
  158  H  8  S    0.077659  -0.019441   0.006376   0.107612  -0.066583
  159  H  8  S    0.119667  -0.019765   0.002750   0.164468  -0.096259
  160  H  8  S    0.017894  -0.012786  -0.005405   0.046572  -0.033135
  161  H  8  X   -0.000460   0.006406   0.000100  -0.000743  -0.000920
  162  H  8  Y   -0.009123  -0.000395   0.002802  -0.012074  -0.000549
  163  H  8  Z   -0.007265   0.002813  -0.000995  -0.009004   0.008799
  164  H  9  S   -0.077178  -0.019854   0.006812  -0.108687  -0.064698
  165  H  9  S   -0.118984  -0.020269   0.003375  -0.166019  -0.093392
  166  H  9  S   -0.017882  -0.013017  -0.005173  -0.046940  -0.032303
  167  H  9  X    0.000707   0.006511   0.000068   0.001055  -0.000606
  168  H  9  Y    0.008908  -0.000425   0.002780   0.011848  -0.000964
  169  H  9  Z   -0.007368  -0.002583   0.000943  -0.009413  -0.008645

                     16         17         18         19         20
                   -0.3698    -0.3644    -0.2905    -0.2808    -0.0746
                     A          A          A          A          A   
    1  C  1  S    0.000947  -0.024061   0.000216   0.000004  -0.000025
    2  C  1  S    0.001519  -0.038508   0.000346   0.000006  -0.000033
    3  C  1  X   -0.006574   0.109085  -0.000646  -0.000041  -0.003218
    4  C  1  Y    0.001050   0.000028   0.000040  -0.065202   0.001745
    5  C  1  Z    0.141757   0.007050   0.005868   0.000480   0.235543
    6  C  1  S   -0.006126   0.157819  -0.001460  -0.000015   0.000927
    7  C  1  X   -0.010416   0.177486  -0.001074  -0.000068  -0.004809
    8  C  1  Y    0.001593   0.000031   0.000040  -0.099544   0.002630
    9  C  1  Z    0.215025   0.010881   0.006562   0.000732   0.354792
   10  C  1  S    0.000050  -0.038922   0.000267  -0.000084  -0.001352
   11  C  1  X   -0.005441   0.054488  -0.000180  -0.000099  -0.006556
   12  C  1  Y    0.001159   0.000089  -0.000002  -0.101564   0.003507
   13  C  1  Z    0.155773   0.006809   0.000654   0.000748   0.473245
   14  C  1  S    0.002053  -0.064825   0.003836  -0.001552  -0.000434
   15  C  1  X    0.000500  -0.032836   0.001463  -0.000331  -0.005287
   16  C  1  Y    0.000459   0.000392  -0.000112   0.050434   0.001792
   17  C  1  Z    0.057060   0.001604  -0.007928  -0.000374   0.250956
   18  C  1 XX    0.000810  -0.010783   0.000142  -0.000020  -0.000340
   19  C  1 YY   -0.000498   0.012166  -0.000085   0.000016   0.000026
   20  C  1 ZZ   -0.000433   0.002201  -0.000095   0.000004   0.000358
   21  C  1 XY   -0.000106   0.000004  -0.000036  -0.026989   0.000102
   22  C  1 XZ   -0.014262  -0.000843  -0.004328   0.000200   0.013821
   23  C  1 YZ    0.000007  -0.000086   0.000001  -0.000399  -0.000005
   24  C  1 XX    0.000379   0.005080   0.000328  -0.000071  -0.000394
   25  C  1 YY   -0.001476   0.037773  -0.000320   0.000050   0.000300
   26  C  1 ZZ   -0.001912   0.031736  -0.000585   0.000016   0.001620
   27  C  1 XY   -0.000234   0.000004  -0.000116  -0.080815   0.000363
   28  C  1 XZ   -0.031526  -0.001854  -0.015083   0.000597   0.048300
   29  C  1 YZ    0.000010  -0.000054   0.000003  -0.001162  -0.000015
   30  O  2  S    0.000329  -0.006905  -0.000014  -0.000000  -0.000004
   31  O  2  S    0.000504  -0.010508  -0.000024  -0.000000  -0.000007
   32  O  2  X    0.001894  -0.118345  -0.000349   0.000140   0.002467
   33  O  2  Y    0.001723   0.000166   0.000492   0.264224  -0.001355
   34  O  2  Z    0.233406   0.008264   0.062857  -0.001959  -0.183732
   35  O  2  S   -0.001300   0.028082   0.000093   0.000010   0.000053
   36  O  2  X    0.002637  -0.169317  -0.000530   0.000203   0.003576
   37  O  2  Y    0.002521   0.000240   0.000718   0.379508  -0.001963
   38  O  2  Z    0.341542   0.012142   0.091845  -0.002815  -0.266276
   39  O  2  S   -0.003475   0.073836  -0.000035  -0.000035  -0.000486
   40  O  2  X    0.001183  -0.118990  -0.000621   0.000173   0.003412
   41  O  2  Y    0.002160   0.000201   0.000639   0.345686  -0.002074
   42  O  2  Z    0.292539   0.010791   0.081558  -0.002563  -0.281250
   43  O  2  S   -0.001983   0.044506  -0.000600   0.000068   0.000221
   44  O  2  X   -0.000294  -0.002310  -0.000537   0.000086   0.003767
   45  O  2  Y    0.000171  -0.000021   0.000145   0.086823  -0.001612
   46  O  2  Z    0.023516   0.001139   0.018439  -0.000644  -0.218364
   47  O  2 XX    0.000035  -0.003979  -0.000006   0.000004  -0.000048
   48  O  2 YY   -0.000124   0.002883  -0.000011  -0.000002  -0.000004
   49  O  2 ZZ    0.000015   0.002805   0.000014  -0.000001   0.000050
   50  O  2 XY    0.000042   0.000006   0.000008   0.003395   0.000016
   51  O  2 XZ    0.005757   0.000131   0.001018  -0.000025   0.002122
   52  O  2 YZ   -0.000002  -0.000001  -0.000000   0.000045  -0.000001
   53  O  2 XX   -0.000393  -0.005323  -0.000115   0.000014  -0.000218
   54  O  2 YY   -0.000089   0.002713  -0.000015  -0.000004   0.000021
   55  O  2 ZZ    0.000585   0.003044   0.000110   0.000002   0.000230
   56  O  2 XY    0.000215   0.000018   0.000037   0.012458   0.000065
   57  O  2 XZ    0.029112   0.001068   0.004715  -0.000093   0.008686
   58  O  2 YZ   -0.000009   0.000002  -0.000001   0.000171  -0.000003
   59  C  3  S   -0.000389   0.009641   0.000005  -0.019353  -0.000032
   60  C  3  S   -0.000609   0.015010   0.000011  -0.029702  -0.000046
   61  C  3  X    0.004308  -0.092370   0.001412  -0.076171   0.000093
   62  C  3  Y    0.000462  -0.014772  -0.000412   0.073670   0.000051
   63  C  3  Z   -0.027796  -0.002965  -0.065088  -0.001589  -0.005634
   64  C  3  S    0.002018  -0.058720  -0.000196   0.093124   0.000353
   65  C  3  X    0.006189  -0.135014   0.001786  -0.105038   0.000009
   66  C  3  Y    0.001006  -0.027392  -0.000573   0.102240   0.000032
   67  C  3  Z   -0.035503  -0.004112  -0.080818  -0.002169  -0.000521
   68  C  3  S   -0.000041   0.056427  -0.000024   0.044653  -0.001207
   69  C  3  X    0.004093  -0.084890   0.001123  -0.074934  -0.000907
   70  C  3  Y    0.000830  -0.003253  -0.000297   0.093455  -0.000303
   71  C  3  Z   -0.030768  -0.002929  -0.045343  -0.001588   0.052404
   72  C  3  S   -0.001645   0.054531  -0.001904   0.029094   0.000642
   73  C  3  X    0.000294  -0.000266   0.000161  -0.029370   0.002779
   74  C  3  Y   -0.000658   0.017080  -0.000416   0.009432  -0.000574
   75  C  3  Z   -0.023691  -0.000949   0.002815  -0.000474  -0.099154
   76  C  3 XX    0.000012   0.003778  -0.000268   0.004857   0.000242
   77  C  3 YY    0.000223  -0.005685   0.000111   0.000433   0.000112
   78  C  3 ZZ   -0.000166  -0.000224   0.000155  -0.000646  -0.000339
   79  C  3 XY    0.000402  -0.011825  -0.000191  -0.002897  -0.000368
   80  C  3 XZ   -0.005390  -0.000044   0.006193   0.000131  -0.008701
   81  C  3 YZ    0.001988  -0.000080   0.014250  -0.000045   0.014148
   82  C  3 XX    0.000485  -0.002485  -0.000924   0.009282   0.000871
   83  C  3 YY    0.000948  -0.023868   0.000256   0.003159   0.000295
   84  C  3 ZZ   -0.000958   0.001196   0.000455   0.004382  -0.000801
   85  C  3 XY    0.000336  -0.012922  -0.000376   0.002319  -0.000820
   86  C  3 XZ   -0.018611  -0.000646   0.021990   0.000087  -0.026529
   87  C  3 YZ    0.006352   0.000220   0.028263   0.000093   0.030878
   88  C  4  S   -0.000387   0.009647   0.000005   0.019350  -0.000035
   89  C  4  S   -0.000605   0.015019   0.000010   0.029697  -0.000050
   90  C  4  X    0.004303  -0.092350   0.001428   0.076247   0.000100
   91  C  4  Y   -0.000872   0.014763  -0.000510   0.073623  -0.000146
   92  C  4  Z   -0.027806  -0.003247  -0.065096   0.000528  -0.005639
   93  C  4  S    0.002025  -0.058658  -0.000222  -0.093173   0.000353
   94  C  4  X    0.006181  -0.134975   0.001807   0.105145   0.000018
   95  C  4  Y   -0.001524   0.027385  -0.000576   0.102167  -0.000054
   96  C  4  Z   -0.035508  -0.004608  -0.080841   0.000692  -0.000529
   97  C  4  S   -0.000122   0.056022   0.000060  -0.044300  -0.001147
   98  C  4  X    0.004092  -0.084909   0.001114   0.075044  -0.000894
   99  C  4  Y   -0.001284   0.003257  -0.000296   0.093325   0.001076
  100  C  4  Z   -0.030767  -0.003069  -0.045363   0.000236   0.052389
  101  C  4  S   -0.001861   0.052528  -0.001600  -0.027491   0.001197
  102  C  4  X    0.000324   0.000002   0.000110   0.029089   0.002775
  103  C  4  Y    0.000345  -0.016700   0.000425   0.009072  -0.001044
  104  C  4  Z   -0.023704  -0.000706   0.002817   0.000334  -0.099143
  105  C  4 XX    0.000011   0.003800  -0.000273  -0.004862   0.000240
  106  C  4 YY    0.000172  -0.005700  -0.000257  -0.000429  -0.000254
  107  C  4 ZZ   -0.000113  -0.000229   0.000524   0.000644   0.000027
  108  C  4 XY   -0.000478   0.011813   0.000287  -0.002898   0.000245
  109  C  4 XZ   -0.005385  -0.000217   0.006181  -0.000091  -0.008714
  110  C  4 YZ   -0.001990   0.000170  -0.014253  -0.000023  -0.014142
  111  C  4 XX    0.000493  -0.002413  -0.000944  -0.009319   0.000857
  112  C  4 YY    0.000800  -0.023845  -0.000490  -0.003174  -0.000504
  113  C  4 ZZ   -0.000778   0.001244   0.001151  -0.004431  -0.000015
  114  C  4 XY   -0.000610   0.012891   0.000720   0.002312   0.000437
  115  C  4 XZ   -0.018607  -0.000840   0.021961  -0.000131  -0.026563
  116  C  4 YZ   -0.006358   0.000206  -0.028278   0.000078  -0.030855
  117  O  5  S    0.001190  -0.028117  -0.000006   0.000001   0.000149
  118  O  5  S    0.001834  -0.043274  -0.000015   0.000001   0.000243
  119  O  5  X   -0.007312   0.231558  -0.006233  -0.000021   0.001124
  120  O  5  Y   -0.000650  -0.000060   0.001925   0.002640  -0.000169
  121  O  5  Z   -0.087004   0.001987   0.266587  -0.000047  -0.018929
  122  O  5  S   -0.005586   0.131663   0.000010  -0.000001  -0.000903
  123  O  5  X   -0.010568   0.336108  -0.009029  -0.000032   0.001629
  124  O  5  Y   -0.000950  -0.000087   0.002798   0.004238  -0.000225
  125  O  5  Z   -0.126863   0.002876   0.387074  -0.000072  -0.024453
  126  O  5  S   -0.008016   0.178365   0.000146  -0.000026  -0.000795
  127  O  5  X   -0.008969   0.296723  -0.008620   0.000001   0.001917
  128  O  5  Y   -0.000863  -0.000063   0.002642   0.010175  -0.000393
  129  O  5  Z   -0.115846   0.002340   0.365862  -0.000111  -0.047485
  130  O  5  S   -0.002898   0.028714  -0.000356  -0.000210   0.001219
  131  O  5  X   -0.000760   0.043663  -0.001934   0.000011  -0.001069
  132  O  5  Y   -0.000087   0.000053   0.000685  -0.014609   0.000069
  133  O  5  Z   -0.012499   0.000539   0.094891   0.000094   0.016307
  134  O  5 XX   -0.000043  -0.000114   0.000108   0.000001   0.000030
  135  O  5 YY   -0.000082   0.001830  -0.000003  -0.000001  -0.000012
  136  O  5 ZZ   -0.000199   0.006179  -0.000117  -0.000001  -0.000031
  137  O  5 XY    0.000009  -0.000000  -0.000020   0.001592  -0.000008
  138  O  5 XZ    0.001204  -0.000123  -0.002857  -0.000011  -0.001102
  139  O  5 YZ   -0.000002   0.000036   0.000001   0.000024   0.000000
  140  O  5 XX    0.000245  -0.015607   0.000727   0.000002   0.000041
  141  O  5 YY   -0.000317   0.007047  -0.000051  -0.000003  -0.000093
  142  O  5 ZZ   -0.000139   0.012524  -0.000749  -0.000001  -0.000107
  143  O  5 XY    0.000071   0.000004  -0.000136   0.004870  -0.000025
  144  O  5 XZ    0.009387  -0.000420  -0.019027  -0.000035  -0.003565
  145  O  5 YZ   -0.000003   0.000045   0.000003   0.000054   0.000002
  146  H  6  S    0.021244  -0.006789   0.070498  -0.023165   0.050295
[...]
  136  O  5 ZZ   -0.000022   0.000013   0.001504   0.000007
  137  O  5 XY   -0.000034   0.001598  -0.000007   0.000002
  138  O  5 XZ    0.000001  -0.000012  -0.000013   0.000332
  139  O  5 YZ    0.001721   0.000033   0.000036  -0.000001
  140  O  5 XX    0.000000   0.000189  -0.019395  -0.000228
  141  O  5 YY    0.000055   0.000176  -0.033955   0.000026
  142  O  5 ZZ   -0.000047   0.000200  -0.005565   0.000275
  143  O  5 XY   -0.000021   0.001431   0.000010   0.000065
  144  O  5 XZ   -0.000000  -0.000010  -0.000315   0.008600
  145  O  5 YZ    0.004175   0.000015   0.000242  -0.000000
  146  H  6  S    0.007694   0.000101   0.014824   0.002989
  147  H  6  S   -0.117721  -0.021167   0.057433  -0.009088
  148  H  6  S    0.246424   0.285030   0.035031   0.238295
  149  H  6  X    0.000450  -0.010373  -0.008502  -0.005152
  150  H  6  Y    0.005861  -0.001160   0.001984   0.003237
  151  H  6  Z    0.003573   0.000645  -0.008478   0.001028
  152  H  7  S   -0.007571   0.000147   0.014959  -0.002947
  153  H  7  S    0.117016  -0.020737   0.057509   0.009335
  154  H  7  S   -0.236593   0.282991   0.036810  -0.237268
  155  H  7  X   -0.000547  -0.010342  -0.008794   0.005156
  156  H  7  Y   -0.005749  -0.001196   0.002019  -0.003206
  157  H  7  Z    0.003629  -0.001054   0.008120   0.001304
  158  H  8  S    0.007565  -0.000069   0.014972  -0.002951
  159  H  8  S   -0.117035   0.020260   0.057808   0.009336
  160  H  8  S    0.236360  -0.280032   0.033765  -0.237486
  161  H  8  X    0.000541   0.010308  -0.008844   0.005156
  162  H  8  Y   -0.005801  -0.001146  -0.001888   0.003222
  163  H  8  Z   -0.003545   0.001155   0.008157   0.001257
  164  H  9  S   -0.007704  -0.000017   0.014821   0.002985
  165  H  9  S    0.117737   0.020760   0.057694  -0.009096
  166  H  9  S   -0.246654  -0.281914   0.031807   0.237885
  167  H  9  X   -0.000448   0.010338  -0.008551  -0.005156
  168  H  9  Y    0.005805  -0.001137  -0.002098  -0.003217
  169  H  9  Z   -0.003655  -0.000706  -0.008461   0.001079

     ---------------------------------------------------------------------
     PROPERTIES FOR THE B3LYP    DFT FUNCTIONAL (RHF  TYPE) DENSITY MATRIX
     ---------------------------------------------------------------------

          -----------------
          ENERGY COMPONENTS
          -----------------

         WAVEFUNCTION NORMALIZATION =       1.0000000000

                ONE ELECTRON ENERGY =    -698.4853024903
                TWO ELECTRON ENERGY =     262.2203155505
           NUCLEAR REPULSION ENERGY =     169.1980266313
                                      ------------------
                       TOTAL ENERGY =    -267.0669603085

 ELECTRON-ELECTRON POTENTIAL ENERGY =     262.2203155505
  NUCLEUS-ELECTRON POTENTIAL ENERGY =    -964.4845885128
   NUCLEUS-NUCLEUS POTENTIAL ENERGY =     169.1980266313
                                      ------------------
             TOTAL POTENTIAL ENERGY =    -533.0662463310
               TOTAL KINETIC ENERGY =     265.9992860225
                 VIRIAL RATIO (V/T) =       2.0040138239

          ---------------------------------------
          MULLIKEN AND LOWDIN POPULATION ANALYSES
          ---------------------------------------

     ATOMIC MULLIKEN POPULATION IN EACH MOLECULAR ORBITAL

                      1          2          3          4          5

                  2.000000   2.000000   2.000000   2.000000   2.000000

    1            -0.000481  -0.000794   2.008902  -0.003513  -0.004875
    2             2.000945   0.000049  -0.008446   0.000043  -0.000438
    3            -0.000259   0.000327  -0.000364   1.399160   0.612273
    4            -0.000259   0.000327  -0.000364   0.609702   1.401741
    5             0.000060   2.000093   0.000071  -0.001626  -0.005639
    6            -0.000001  -0.000000   0.000050  -0.001283  -0.000426
    7            -0.000001  -0.000000   0.000050  -0.001280  -0.000425
    8            -0.000001  -0.000000   0.000050  -0.000600  -0.001104
    9            -0.000001  -0.000000   0.000050  -0.000603  -0.001108

                      6          7          8          9         10

                  2.000000   2.000000   2.000000   2.000000   2.000000

    1             0.461920   0.158206   0.703800   0.223823   0.177548
    2             1.046264   0.451799   0.092210   0.003776   0.078177
    3             0.058881   0.174721   0.311925   0.537633   0.548451
    4             0.059699   0.175229   0.312154   0.537699   0.548520
    5             0.358992   1.021501   0.445048   0.245970   0.048321
    6             0.003584   0.004661   0.033960   0.112615   0.149959
    7             0.003565   0.004638   0.033688   0.112765   0.149518
    8             0.003537   0.004608   0.033479   0.112913   0.149521
    9             0.003558   0.004636   0.033735   0.112805   0.149985

                     11         12         13         14         15

                  2.000000   2.000000   2.000000   2.000000   2.000000

    1             0.247183   0.425696   0.285811   0.012975   0.224917
    2             0.094826   0.281499   1.434555   0.000099   0.386422
    3             0.430445   0.350697   0.040378   0.521069   0.326692
    4             0.430351   0.350806   0.040368   0.521114   0.326814
    5             0.305431   0.578777   0.194157   0.004314   0.382556
    6             0.122129   0.003146   0.001259   0.240187   0.083088
    7             0.123808   0.003120   0.001102   0.230031   0.093224
    8             0.123771   0.003101   0.001108   0.230015   0.093240
    9             0.122056   0.003159   0.001262   0.240196   0.083046

                     16         17         18         19

                  2.000000   2.000000   2.000000   2.000000

    1             0.487276   0.181065   0.005428   0.219074
    2             1.194455   0.165983   0.039971   1.117747
    3             0.045485   0.189590   0.094175   0.297414
    4             0.045526   0.188828   0.094207   0.297584
    5             0.153054   1.269990   1.388579  -0.003593
    6             0.018668   0.001025   0.094972   0.017884
    7             0.018417   0.001230   0.093810   0.018010
    8             0.018423   0.001253   0.093803   0.018035
    9             0.018696   0.001035   0.095054   0.017846

               ----- POPULATIONS IN EACH AO -----
                             MULLIKEN      LOWDIN
              1  C  1  S      1.10773     1.04327
              2  C  1  S      0.86611     0.90294
              3  C  1  X      0.25695     0.24950
              4  C  1  Y      0.22179     0.21423
              5  C  1  Z      0.14079     0.13563
              6  C  1  S      0.81411     0.27910
              7  C  1  X      0.48250     0.45909
              8  C  1  Y      0.51508     0.47588
              9  C  1  Z      0.33499     0.29721
             10  C  1  S      0.33476     0.14384
             11  C  1  X      0.02772     0.17347
             12  C  1  Y      0.16068     0.23436
             13  C  1  Z      0.20313     0.19894
             14  C  1  S     -0.02847     0.04983
             15  C  1  X      0.01586     0.04642
             16  C  1  Y      0.04930     0.04478
             17  C  1  Z      0.01758     0.03120
             18  C  1 XX      0.03164     0.15524
             19  C  1 YY      0.00512     0.10835
             20  C  1 ZZ     -0.00676     0.09340
             21  C  1 XY      0.01778     0.02873
             22  C  1 XZ      0.00622     0.00756
             23  C  1 YZ      0.00076     0.00076
             24  C  1 XX      0.02677     0.18677
             25  C  1 YY      0.02586     0.09824
             26  C  1 ZZ      0.01116     0.04399
             27  C  1 XY      0.12546     0.30459
             28  C  1 XZ      0.03717     0.13187
             29  C  1 YZ      0.01216     0.04182
             30  O  2  S      1.08642     1.03080
             31  O  2  S      0.89719     0.92626
             32  O  2  X      0.31772     0.31415
             33  O  2  Y      0.38438     0.38754
             34  O  2  Z      0.26669     0.26667
             35  O  2  S      1.02020     0.40510
             36  O  2  X      0.66006     0.64684
             37  O  2  Y      0.77164     0.72718
             38  O  2  Z      0.57003     0.52711
             39  O  2  S      0.78837     0.27852
             40  O  2  X      0.34041     0.39318
             41  O  2  Y      0.58608     0.45819
             42  O  2  Z      0.46821     0.39274
             43  O  2  S      0.05698     0.09479
             44  O  2  X      0.00200     0.07955
             45  O  2  Y      0.03696     0.09121
             46  O  2  Z      0.00972     0.08443
             47  O  2 XX      0.01235     0.16185
             48  O  2 YY      0.00475     0.15360
             49  O  2 ZZ      0.00623     0.15558
             50  O  2 XY      0.00066     0.00069
             51  O  2 XZ      0.00082     0.00083
             52  O  2 YZ      0.00000     0.00000
             53  O  2 XX      0.03448     0.15949
             54  O  2 YY      0.01440     0.12719
             55  O  2 ZZ      0.01950     0.13070
             56  O  2 XY      0.00988     0.02327
             57  O  2 XZ      0.01383     0.01504
             58  O  2 YZ     -0.00002     0.00001
             59  C  3  S      1.10750     1.04385
             60  C  3  S      0.86625     0.90505
             61  C  3  X      0.18302     0.17670
             62  C  3  Y      0.21307     0.20289
             63  C  3  Z      0.23637     0.22239
             64  C  3  S      0.79354     0.27893
             65  C  3  X      0.42711     0.41492
             66  C  3  Y      0.47514     0.43670
             67  C  3  Z      0.51279     0.47522
             68  C  3  S      0.22992     0.16867
             69  C  3  X      0.18868     0.20743
             70  C  3  Y      0.19613     0.23237
             71  C  3  Z      0.27501     0.30947
             72  C  3  S      0.02344     0.05337
             73  C  3  X     -0.00833     0.02411
             74  C  3  Y      0.01189     0.04335
             75  C  3  Z      0.01651     0.03895
             76  C  3 XX      0.00372     0.10593
             77  C  3 YY      0.00767     0.11099
             78  C  3 ZZ      0.00703     0.11193
             79  C  3 XY      0.00703     0.00960
             80  C  3 XZ      0.00122     0.00131
             81  C  3 YZ      0.00557     0.00688
             82  C  3 XX      0.03301     0.11463
             83  C  3 YY      0.03981     0.12796
             84  C  3 ZZ      0.02353     0.10023
             85  C  3 XY      0.01840     0.08046
             86  C  3 XZ      0.01817     0.05121
             87  C  3 YZ      0.02550     0.12222
             88  C  4  S      1.10750     1.04385
             89  C  4  S      0.86625     0.90505
             90  C  4  X      0.18307     0.17675
             91  C  4  Y      0.21304     0.20287
             92  C  4  Z      0.23635     0.22237
             93  C  4  S      0.79353     0.27893
             94  C  4  X      0.42720     0.41499
             95  C  4  Y      0.47509     0.43668
             96  C  4  Z      0.51275     0.47518
             97  C  4  S      0.23011     0.16867
             98  C  4  X      0.18873     0.20747
             99  C  4  Y      0.19605     0.23235
            100  C  4  Z      0.27500     0.30945
            101  C  4  S      0.02442     0.05338
            102  C  4  X     -0.00821     0.02412
            103  C  4  Y      0.01203     0.04335
            104  C  4  Z      0.01651     0.03895
            105  C  4 XX      0.00372     0.10593
            106  C  4 YY      0.00767     0.11099
            107  C  4 ZZ      0.00703     0.11192
            108  C  4 XY      0.00703     0.00960
            109  C  4 XZ      0.00122     0.00131
            110  C  4 YZ      0.00557     0.00688
            111  C  4 XX      0.03306     0.11462
            112  C  4 YY      0.03974     0.12799
            113  C  4 ZZ      0.02353     0.10026
            114  C  4 XY      0.01839     0.08049
            115  C  4 XZ      0.01815     0.05115
            116  C  4 YZ      0.02551     0.12221
            117  O  5  S      1.08645     1.03063
            118  O  5  S      0.89706     0.92631
            119  O  5  X      0.31315     0.31333
            120  O  5  Y      0.25316     0.25163
            121  O  5  Z      0.39691     0.40172
            122  O  5  S      1.02056     0.40024
            123  O  5  X      0.66318     0.64733
            124  O  5  Y      0.57105     0.54224
            125  O  5  Z      0.79556     0.76908
            126  O  5  S      0.71370     0.26182
            127  O  5  X      0.46612     0.43612
            128  O  5  Y      0.40146     0.37817
            129  O  5  Z      0.62079     0.49989
            130  O  5  S      0.03633     0.09060
            131  O  5  X      0.02306     0.08827
            132  O  5  Y     -0.04145     0.08607
            133  O  5  Z      0.02864     0.09591
            134  O  5 XX      0.00624     0.15252
            135  O  5 YY      0.00838     0.15735
            136  O  5 ZZ      0.00434     0.15189
            137  O  5 XY      0.00119     0.00125
            138  O  5 XZ      0.00025     0.00035
            139  O  5 YZ      0.00012     0.00008
            140  O  5 XX      0.03496     0.13854
            141  O  5 YY      0.04181     0.14262
            142  O  5 ZZ      0.01731     0.12201
            143  O  5 XY      0.01697     0.02920
            144  O  5 XZ      0.00465     0.00947
            145  O  5 YZ      0.00410     0.01179
            146  H  6  S      0.27757     0.26231
            147  H  6  S      0.50462     0.37596
            148  H  6  S      0.07869     0.12968
            149  H  6  X      0.00342     0.01073
            150  H  6  Y      0.00890     0.01861
            151  H  6  Z      0.01227     0.02636
            152  H  7  S      0.27758     0.26228
            153  H  7  S      0.50446     0.37592
            154  H  7  S      0.07864     0.12969
            155  H  7  X      0.00339     0.01076
            156  H  7  Y      0.00883     0.01852
            157  H  7  Z      0.01237     0.02645
            158  H  8  S      0.27757     0.26222
            159  H  8  S      0.50445     0.37587
            160  H  8  S      0.07854     0.12970
            161  H  8  X      0.00339     0.01076
            162  H  8  Y      0.00902     0.01877
            163  H  8  Z      0.01218     0.02616
            164  H  9  S      0.27758     0.26238
            165  H  9  S      0.50463     0.37602
            166  H  9  S      0.07861     0.12967
            167  H  9  X      0.00342     0.01074
            168  H  9  Y      0.00871     0.01836
            169  H  9  Z      0.01246     0.02663

          ----- MULLIKEN ATOMIC OVERLAP POPULATIONS -----
          (OFF-DIAGONAL ELEMENTS NEED TO BE MULTIPLIED BY 2)

             1           2           3           4           5

    1    4.9018985
    2    0.4032993   8.0335149
    3    0.3279649  -0.0306452   4.7112353
    4    0.3311591  -0.0307961  -0.1473174   4.7085523
    5   -0.0736370   0.0008963   0.2633506   0.2634924   8.0994274
    6   -0.0180261   0.0008118   0.4011964   0.0048746  -0.0419172
    7   -0.0198322   0.0010074   0.4020501   0.0058511  -0.0417451
    8   -0.0203495   0.0010225   0.0059066   0.4025185  -0.0417886
    9   -0.0185141   0.0008232   0.0049500   0.4017140  -0.0420224

             6           7           8           9

    6    0.5836526
    7   -0.0454678   0.5831495
    8   -0.0019763   0.0022330   0.5830981
    9    0.0023300  -0.0019767  -0.0455109   0.5836135

          TOTAL MULLIKEN AND LOWDIN ATOMIC POPULATIONS
       ATOM         MULL.POP.    CHARGE          LOW.POP.     CHARGE
    1 C             5.813963    0.186037         6.181021   -0.181021
    2 O             8.379934   -0.379934         8.032525   -0.032525
    3 C             5.938691    0.061309         6.177725   -0.177725
    4 C             5.940048    0.059952         6.177751   -0.177751
    5 O             8.386056   -0.386056         8.136426   -0.136426
    6 H             0.885478    0.114522         0.823652    0.176348
    7 H             0.885269    0.114731         0.823620    0.176380
    8 H             0.885153    0.114847         0.823487    0.176513
    9 H             0.885407    0.114593         0.823793    0.176207

          -------------------------------
          BOND ORDER AND VALENCE ANALYSIS     BOND ORDER THRESHOLD=0.050
          -------------------------------

                   BOND                       BOND                       BOND
  ATOM PAIR DIST  ORDER      ATOM PAIR DIST  ORDER      ATOM PAIR DIST  ORDER
    1   2  1.192  1.930        1   3  1.530  1.005        1   4  1.530  1.008
    3   4  2.118  0.055        3   5  1.451  1.006        3   6  1.094  0.948
    3   7  1.094  0.948        4   5  1.451  1.006        4   8  1.094  0.948
    4   9  1.094  0.948

                       TOTAL       BONDED        FREE
      ATOM            VALENCE     VALENCE     VALENCE
    1 C                 3.952       3.952      -0.000
    2 O                 2.025       2.025      -0.000
    3 C                 3.987       3.987       0.000
    4 C                 3.990       3.990       0.000
    5 O                 1.954       1.954      -0.000
    6 H                 0.959       0.959       0.000
    7 H                 0.959       0.959       0.000
    8 H                 0.959       0.959       0.000
    9 H                 0.959       0.959       0.000

          ---------------------
          ELECTROSTATIC MOMENTS
          ---------------------

 POINT   1           X           Y           Z (BOHR)    CHARGE
                 0.033698   -0.000647   -0.109649       -0.00 (A.U.)
         DX          DY          DZ         /D/  (DEBYE)
     0.947053   -0.000549   -0.003189    0.947059
 ...... END OF PROPERTY EVALUATION ......
 STEP CPU TIME =     0.07 TOTAL CPU TIME =       1206.6 (     20.1 MIN)
 TOTAL WALL CLOCK TIME=       1210.5 SECONDS, CPU UTILIZATION IS    99.68%
  $VIB   
          IVIB=   0 IATOM=   0 ICOORD=   0 E=     -267.0669603085
  3.964020727E-05-2.652528494E-06-1.977231155E-06-5.334638134E-05 1.434666633E-06
  3.514608202E-06 1.229829388E-05 2.307650768E-05-9.542313119E-06 1.094695728E-05
 -2.379440562E-05-9.181785055E-06 5.620072215E-06 4.480498894E-07 8.362097725E-06
 -4.630937191E-06-1.428674299E-05 1.425344442E-05-3.427847269E-06-1.120376045E-05
 -9.584700569E-06-2.815390769E-06 1.164883426E-05-1.064436578E-05-4.284974075E-06
  1.532937909E-05 1.480024533E-05
  9.470530350E-01-5.492550451E-04-3.189259404E-03
 ......END OF GEOMETRY SEARCH......
 STEP CPU TIME =     0.00 TOTAL CPU TIME =       1206.6 (     20.1 MIN)
 TOTAL WALL CLOCK TIME=       1210.5 SECONDS, CPU UTILIZATION IS    99.68%
               995901  WORDS OF DYNAMIC MEMORY USED
 EXECUTION OF GAMESS TERMINATED NORMALLY Wed Sep 28 18:20:55 2022
 DDI: 263640 bytes (0.3 MB / 0 MWords) used by master data server.

 ----------------------------------------
 CPU timing information for all processes
 ========================================
 0: 1203.06 + 3.561 = 1206.568
 1: 0.01 + 0.02 = 0.04
 ----------------------------------------
Note: The following floating-point exceptions are signalling: IEEE_UNDERFLOW_FLAG IEEE_DENORMAL
 ddikick.x: exited gracefully.
unset echo
----- accounting info -----
Files used on the master node Samuels-MBP.attlocal.net were:
-rw-r--r-- 1 Sammy staff   52810 Sep 28 18:00 /Users/Sammy/gamess/scratch/oxetanone_dft_2.F05
-rw-r--r-- 1 Sammy staff 3860960 Sep 28 18:20 /Users/Sammy/gamess/scratch/oxetanone_dft_2.F10
-rw-r--r-- 1 Sammy staff 2537768 Sep 28 18:19 /Users/Sammy/gamess/scratch/oxetanone_dft_2.F22
ls: No match.
ls: No match.
ls: No match.
Wed Sep 28 18:20:58 CDT 2022
1203.115u 3.666s 20:13.78 99.4%	0+0k 0+0io 165pf+0w
