----- GAMESS execution script 'rungms' -----
This job is running on host Samuels-MBP.attlocal.net
under operating system Darwin at Fri Oct 7 15:14:19 CDT 2022
Available scratch disk space (Kbyte units) at beginning of the job is
Filesystem     1K-blocks      Used Available Use% Mounted on
/dev/disk1s5s1 244912536 150414648  75105576  67% /
GAMESS temporary binary files will be written to /Users/Sammy/gamess/scratch
GAMESS supplementary output files will be written to /Users/Sammy/gamess/
Copying input file input_files/oxetanone/oxetanone_conicl4.inp to your run's scratch directory...
cp input_files/oxetanone/oxetanone_conicl4.inp /Users/Sammy/gamess/scratch/oxetanone_conicl4.F05
unset echo
 
Assuming a single but multicore node.
 
/Users/Sammy/gamess//ddikick.x /Users/Sammy/gamess//gamess.30Jun2020R1.x oxetanone_conicl4 -ddi 4 4 localhost localhost localhost localhost -scr /Users/Sammy/gamess/scratch

 Distributed Data Interface kickoff program.
 Initiating 4 compute processes on 4 nodes to run the following command:
 /Users/Sammy/gamess//gamess.30Jun2020R1.x oxetanone_conicl4 

          *******************************************************
          *                                                     *
          *          GAMESS VERSION = 30 JUN 2020 (R1)          *
          *                                                     *
          *              doi.org/10.1063/5.0005188              *
          *                                                     *
          **************** 64 BIT APPLE VERSION *****************

  GAMESS HAS BEEN MADE POSSIBLE WITH IMPORTANT CONTRIBUTIONS FROM
  THE FOLLOWING INDIVIDUALS (IN ALPHABETICAL ORDER):

     IVANA ADAMOVIC, CHRISTINE AIKENS, TOMOKO AKAMA,
     YURI ALEXEEV, YURIKO AOKI, POOJA ARORA, TOSHIO ASADA,
     ANDREY ASADCHEV, KIM K. BALDRIDGE, PRADIPTA BANDYOPADHYAY,
     MARIA BARYSZ, ROB BELL, JONATHAN BENTZ, COLLEEN BERTONI,
     JERRY A. BOATZ, BRETT BODE, KURT BRORSEN, KURT R. BRORSEN,
     LAIMUTIS BYTAUTAS, CALEB CARLIN, LAURA CARRINGTON,
     GALINA CHABAN, BENOIT CHAMPAGNE, WEI CHEN, MAHITO CHIBA,
     DAN CHIPMAN, CHEOL HO CHOI, TANNER CULPITT, PAUL DAY,
     ALBERT DEFUSCO, NUWAN DESILVA, J. EMILIANO DEUSTUA,
     TIM DUDLEY, MICHEL DUPUIS, STEVEN T. ELBERT,
     DMITRI FEDOROV, ALEX FINDLATER, GRAHAM FLETCHER,
     MARK FREITAG, CHRISTIAN FRIEDL, DAVID GARMER,
     IGOR S. GERASIMOV, KURT GLAESEMANN, MARK S. GORDON,
     JEFFREY GOUR, FENG LONG GU, EMILIE B. GUIDEZ,
     ANASTASIA GUNINA, SHARON HAMMES-SCHIFFER, MASATAKE HARUTA,
     KIMIHIKO HIRAO, YASUHIRO IKABATA, TZVETELIN IORDANOV,
     STEPHAN IRLE, KAZUYA ISHIMURA, JOE IVANIC, FRANK JENSEN,
     JAN H. JENSEN, VISVALDAS KAIRYS, MUNEAKI KAMIYA,
     MICHIO KATOUDA, NAOAKI KAWAKAMI, DAN KEMP, BERNARD KIRTMAN,
     KAZUO KITAURA, MARIUSZ KLOBUKOWSKI, MASATO KOBAYASHI,
     PRAKASHAN KORAMBATH, JACEK KORCHOWIEC, SHIRO KOSEKI,
     KAROL KOWALSKI, JIMMY KROMANN, STANISLAW KUCHARSKI,
     HENRY KURTZ, SAROM SOK LEANG, HUI LI, SHUHUA LI, WEI LI,
     JESSE LUTZ, ALEKSANDR O. LYKHIN, MARCIN MAKOWSKI,
     JOANI MATO, NIKITA MATSUNAGA, BENEDETTA MENNUCCI,
     GRANT MERRILL, NORIYUKI MINEZAWA, VLADIMIR MIRONOV,
     EISAKU MIYOSHI, JOHN A. MONTGOMERY JR., HIROTOSHI MORI,
     JONATHAN MULLIN, MONIKA MUSIAL, SHIGERU NAGASE,
     TAKESHI NAGATA, HIROMI NAKAI, TAKAHITO NAKAJIMA,
     YUYA NAKAJIMA, HARUYUKI NAKANO, HIROYA NAKATA, SEAN NEDD,
     HEATHER NETZLOFF, KIET A. NGUYEN, YOSHIO NISHIMOTO,
     BOSILJKA NJEGIC, RYAN OLSON, MIKE PAK, ROBERTO PEVERATI,
     BUU PHAM, PIOTR PIECUCH, ANNA POMOGAEVA, DAVID POOLE,
     SPENCER PRUITT, OLIVIER QUINET, LUKE ROSKOP,
     KLAUS RUEDENBERG, ANDREW SAND, TOSAPORN SATTASATHUCHANA,
     NOZOMI SAWADA, MICHAEL W. SCHMIDT, PATRICK E. SCHNEIDER,
     JUNJI SEINO, PRACHI SHARMA, JUN SHEN, JIM SHOEMAKER,
     YINAN SHU, DEJUN SI, JONATHAN SKONE, LYUDMILA SLIPCHENKO,
     TONY SMITH, JIE SONG, MARK SPACKMAN, CASPER STEINMANN,
     WALT STEVENS, PEIFENG SU, SHUJUN SU, CHET SWALINA,
     TETSUYA TAKETSUGU, ZHEN TAO, NANDUN THELLAMUREGE
     SEIKEN TOKURA, JACOPO TOMASI, TSUGUKI TOUMA, TAKAO TSUNEDA,
     HIROAKI UMEDA, JORGE LUIS GALVEZ VALLEJO, YALI WANG,
     SIMON WEBB, AARON WEST, THERESA L. WINDUS, MARTA WLOCH,
     PENG XU, KIYOSHI YAGI, SUSUMU YANAGISAWA, YANG YANG,
     SOOHAENG YOO, TAKESHI YOSHIKAWA, FEDERICO ZAHARIEV,
     TOBY ZENG

  WHO ARE SUPPORTED BY THEIR INSTITUTION/UNIVERSITY/COMPANY/GROUP
  (IN ALPHABETICAL ORDER):

     EP ANALYTICS, FACULTES UNIVERSITAIRES NOTRE-DAME DE LA PAIX,
     INSTITUTE FOR MOLECULAR SCIENCE, IOWA STATE UNIVERSITY,
     JACKSON STATE UNIVERSITY, JOHANNES KEPLER UNIVERSITY LINZ,
     KYUSHU UNIVERSITY, MICHIGAN STATE UNIVERSITY,
     MIE UNIVERSITY, MOSCOW STATE UNIVERSITY,
     N. COPERNICUS UNIVERSITY, NAGOYA UNIVERSITY,
     NANJING UNIVERSITY, NAT. INST. OF ADVANCED INDUSTRIAL
     SCIENCE AND TECHNOLOGY, NATIONAL INST. OF STANDARDS AND
     TECHNOLOGY, NESMEYANOV INSTITUTE OF ORGANOELEMENT COMPOUNDS
     OF RUSSIAN ACADEMY OF SCIENCES, OSAKA PREFECTURE UNIVERSITY,
     PENNSYLVANIA STATE UNIVERSITY, TOKYO INSTITUTE OF TECHNOLOGY,
     UNIVERSITY OF AARHUS, UNIVERSITY OF ALBERTA,
     UNIVERSITY OF CALIFORNIA AT SANTA BARBARA,
     UNIVERSITY OF COPENHAGEN, UNIVERSITY OF IOWA,
     UNIVERSITY OF MEMPHIS, UNIVERSITY OF MINNESOTA,
     UNIVERSITY OF NEBRASKA, UNIVERSITY OF NEW ENGLAND,
     UNIVERSITY OF NOTRE DAME, UNIVERSITY OF PISA,
     UNIVERSITY OF SILESIA, UNIVERSITY OF TOKYO,
     UNIVERSITY OF ZURICH, WASEDA UNIVERSITY, YALE UNIVERSITY

  GAMESS SOFTWARE MANAGEMENT TEAM FOR THIS RELEASE:

     MARK S. GORDON (TEAM LEAD),
     BRETT BODE (SENIOR ADVISOR),
     GIUSEPPE BARCA,
     COLLEEN BERTONI,
     KRISTOPHER KEIPERT (ADVISOR),
     SAROM S. LEANG (DEVELOPMENT LEAD),
     BUU PHAM,
     JORGE LUIS GALVEZ VALLEJO (WEBSITE ADMINISTRATOR),
     PENG XU


 PARALLEL VERSION RUNNING ON        4 PROCESSORS IN        4 NODES.

 EXECUTION OF GAMESS BEGUN Fri Oct  7 15:14:19 2022

            ECHO OF THE FIRST FEW INPUT CARDS -
 INPUT CARD>!   File created by MacMolPlt 7.7                                               
 INPUT CARD> $CONTRL SCFTYP=UHF RUNTYP=CONICAL EXETYP=RUN MAXIT=60                          
 INPUT CARD> DFTTYP=B3LYP MULT=3 TDDFT=SPNFLP $END                                          
 INPUT CARD> $SYSTEM TIMLIM=525600 MEMORY=20000000 $END                                     
 INPUT CARD> $BASIS GBASIS=N311 NGAUSS=6 NDFUNC=2 NPFUNC=1 DIFFSP=.TRUE. $END               
 INPUT CARD> $GUESS GUESS=HUCKEL $END                                                       
 INPUT CARD> $SCF DIRSCF=.TRUE. $END                                                        
 INPUT CARD> $TDDFT NSTATE=2 IROOT=1 TAMMD=.TRUE. $END                                      
 INPUT CARD> $CONICL OPTTYP=PENALTY IXROOT(1)=1,2 DEBUG=.TRUE. $END                         
 INPUT CARD> $DATA                                                                          
 INPUT CARD>Title                                                                           
 INPUT CARD>C1                                                                              
 INPUT CARD>C     6.0     1.41418    -0.69681     0.01027                                   
 INPUT CARD>C     6.0    -1.27709    -0.65196    -0.00799                                   
 INPUT CARD>C     6.0     0.69643     0.65580    -0.01432                                   
 INPUT CARD>O     8.0    -0.72496     0.55907     0.01598                                   
 INPUT CARD>H     1.0    -0.64206    -1.52542    -0.01799                                   
 INPUT CARD>H     1.0    -2.35328    -0.67722    -0.01601                                   
 INPUT CARD>H     1.0     0.96327     1.19493    -0.92829                                   
 INPUT CARD>H     1.0     1.01670     1.22800     0.86079                                   
 INPUT CARD>O     8.0     2.58839    -0.83673    -0.00851                                   
 INPUT CARD> $END                                                                           
   20000000 WORDS OF MEMORY AVAILABLE

     BASIS OPTIONS
     -------------
     GBASIS=N311         IGAUSS=       6      POLAR=POPN311 
     NDFUNC=       2     NFFUNC=       0     DIFFSP=       T
     NPFUNC=       1      DIFFS=       F     BASNAM=        
     SPLIT2=     2.00000000     0.50000000


     RUN TITLE
     ---------
 Title                                                                           

 THE POINT GROUP OF THE MOLECULE IS C1      
 THE ORDER OF THE PRINCIPAL AXIS IS     0

 ATOM      ATOMIC                      COORDINATES (BOHR)
           CHARGE         X                   Y                   Z
 C           6.0     2.6724126973       -1.3167799655        0.0194074859
 C           6.0    -2.4133501617       -1.2320257550       -0.0150989106
 C           6.0     1.3160618696        1.2392823027       -0.0270608761
 O           8.0    -1.3699757521        1.0564891080        0.0301978213
 H           1.0    -1.2133174677       -2.8826258162       -0.0339961705
 H           1.0    -4.4470543724       -1.2797602334       -0.0302545131
 H           1.0     1.8203163522        2.2580902745       -1.7542137371
 H           1.0     1.9212844117        2.3205835129        1.6266572330
 O           8.0     4.8913478494       -1.5811904257       -0.0160815682

          INTERNUCLEAR DISTANCES (ANGS.)
          ------------------------------

                1 C          2 C          3 C          4 O          5 H     

   1 C       0.0000000    2.6917056 *  1.5314449 *  2.4805619 *  2.2170963 *
   2 C       2.6917056 *  0.0000000    2.3675003 *  1.3311708 *  1.0799516 *
   3 C       1.5314449 *  2.3675003 *  0.0000000    1.4249998 *  2.5591580 *
   4 O       2.4805619 *  1.3311708 *  1.4249998 *  0.0000000    2.0864144 *
   5 H       2.2170963 *  1.0799516 *  2.5591580 *  2.0864144 *  0.0000000  
   6 H       3.7676026    1.0765163 *  3.3283143    2.0447157 *  1.9099008 *
   7 H       2.1593737 *  3.0458443    1.0941690 *  2.0361936 *  3.2872534  
   8 H       2.1415574 *  3.0903885    1.0935279 *  2.0480603 *  3.3324257  
   9 O       1.1826662 *  3.8698935    2.4098117 *  3.5954340    3.3030578  

                6 H          7 H          8 H          9 O     

   1 C       3.7676026    2.1593737 *  2.1415574 *  1.1826662 *
   2 C       1.0765163 *  3.0458443    3.0903885    3.8698935  
   3 C       3.3283143    1.0941690 *  1.0935279 *  2.4098117 *
   4 O       2.0447157 *  2.0361936 *  2.0480603 *  3.5954340  
   5 H       1.9099008 *  3.2872534    3.3324257    3.3030578  
   6 H       0.0000000    3.9162105    3.9693081    4.9442494  
   7 H       3.9162105    0.0000000    1.7901831 *  2.7594660 *
   8 H       3.9693081    1.7901831 *  0.0000000    2.7366041 *
   9 O       4.9442494    2.7594660 *  2.7366041 *  0.0000000  

  * ... LESS THAN  3.000


     ATOMIC BASIS SET
     ----------------
 THE CONTRACTED PRIMITIVE FUNCTIONS HAVE BEEN UNNORMALIZED
 THE CONTRACTED BASIS FUNCTIONS ARE NOW NORMALIZED TO UNITY

  SHELL TYPE  PRIMITIVE        EXPONENT          CONTRACTION COEFFICIENT(S)

 C         

      1   S       1          4563.2400000    0.001966650249
      1   S       2           682.0240000    0.015230601932
      1   S       3           154.9730000    0.076126909656
      1   S       4            44.4553000    0.260801033080
      1   S       5            13.0290000    0.616462078191
      1   S       6             1.8277300    0.221006028032

      2   L       7            20.9642000    0.114660080729    0.040248692673
      2   L       8             4.8033100    0.919999647749    0.237593956746
      2   L       9             1.4593300   -0.003030682134    0.815853851473

      3   L      10             0.4834560    1.000000000000    1.000000000000

      4   L      11             0.1455850    1.000000000000    1.000000000000

      5   L      12             0.0438000    1.000000000000    1.000000000000

      6   D      13             1.2520000    1.000000000000

      7   D      14             0.3130000    1.000000000000

 C         

      8   S      15          4563.2400000    0.001966650249
      8   S      16           682.0240000    0.015230601932
      8   S      17           154.9730000    0.076126909656
      8   S      18            44.4553000    0.260801033080
      8   S      19            13.0290000    0.616462078191
      8   S      20             1.8277300    0.221006028032

      9   L      21            20.9642000    0.114660080729    0.040248692673
      9   L      22             4.8033100    0.919999647749    0.237593956746
      9   L      23             1.4593300   -0.003030682134    0.815853851473

     10   L      24             0.4834560    1.000000000000    1.000000000000

     11   L      25             0.1455850    1.000000000000    1.000000000000

     12   L      26             0.0438000    1.000000000000    1.000000000000

     13   D      27             1.2520000    1.000000000000

     14   D      28             0.3130000    1.000000000000

 C         

     15   S      29          4563.2400000    0.001966650249
     15   S      30           682.0240000    0.015230601932
     15   S      31           154.9730000    0.076126909656
     15   S      32            44.4553000    0.260801033080
     15   S      33            13.0290000    0.616462078191
     15   S      34             1.8277300    0.221006028032

     16   L      35            20.9642000    0.114660080729    0.040248692673
     16   L      36             4.8033100    0.919999647749    0.237593956746
     16   L      37             1.4593300   -0.003030682134    0.815853851473

     17   L      38             0.4834560    1.000000000000    1.000000000000

     18   L      39             0.1455850    1.000000000000    1.000000000000

     19   L      40             0.0438000    1.000000000000    1.000000000000

     20   D      41             1.2520000    1.000000000000

     21   D      42             0.3130000    1.000000000000

 O         

     22   S      43          8588.5000000    0.001895150083
     22   S      44          1297.2300000    0.014385900631
     22   S      45           299.2960000    0.070732003103
     22   S      46            87.3771000    0.240001010530
     22   S      47            25.6789000    0.594797026097
     22   S      48             3.7400400    0.280802012320

     23   L      49            42.1175000    0.113889012440    0.036511397380
     23   L      50             9.6283700    0.920811100576    0.237152982984
     23   L      51             2.8533200   -0.003274470358    0.819701941186

     24   L      52             0.9056610    1.000000000000    1.000000000000

     25   L      53             0.2556110    1.000000000000    1.000000000000

     26   L      54             0.0845000    1.000000000000    1.000000000000

     27   D      55             2.5840000    1.000000000000

     28   D      56             0.6460000    1.000000000000

 H         

     29   S      57            33.8650000    0.025493814541
     29   S      58             5.0947900    0.190373108582
     29   S      59             1.1587900    0.852161486043

     30   S      60             0.3258400    1.000000000000

     31   S      61             0.1027410    1.000000000000

     32   P      62             0.7500000    1.000000000000

 H         

     33   S      63            33.8650000    0.025493814541
     33   S      64             5.0947900    0.190373108582
     33   S      65             1.1587900    0.852161486043

     34   S      66             0.3258400    1.000000000000

     35   S      67             0.1027410    1.000000000000

     36   P      68             0.7500000    1.000000000000

 H         

     37   S      69            33.8650000    0.025493814541
     37   S      70             5.0947900    0.190373108582
     37   S      71             1.1587900    0.852161486043

     38   S      72             0.3258400    1.000000000000

     39   S      73             0.1027410    1.000000000000

     40   P      74             0.7500000    1.000000000000

 H         

     41   S      75            33.8650000    0.025493814541
     41   S      76             5.0947900    0.190373108582
     41   S      77             1.1587900    0.852161486043

     42   S      78             0.3258400    1.000000000000

     43   S      79             0.1027410    1.000000000000

     44   P      80             0.7500000    1.000000000000

 O         

     45   S      81          8588.5000000    0.001895150083
     45   S      82          1297.2300000    0.014385900631
     45   S      83           299.2960000    0.070732003103
     45   S      84            87.3771000    0.240001010530
     45   S      85            25.6789000    0.594797026097
     45   S      86             3.7400400    0.280802012320

     46   L      87            42.1175000    0.113889012440    0.036511397380
     46   L      88             9.6283700    0.920811100576    0.237152982984
     46   L      89             2.8533200   -0.003274470358    0.819701941186

     47   L      90             0.9056610    1.000000000000    1.000000000000

     48   L      91             0.2556110    1.000000000000    1.000000000000

     49   L      92             0.0845000    1.000000000000    1.000000000000

     50   D      93             2.5840000    1.000000000000

     51   D      94             0.6460000    1.000000000000

 TOTAL NUMBER OF BASIS SET SHELLS             =   51
 NUMBER OF CARTESIAN GAUSSIAN BASIS FUNCTIONS =  169
 NUMBER OF ELECTRONS                          =   38
 CHARGE OF MOLECULE                           =    0
 SPIN MULTIPLICITY                            =    3
 NUMBER OF OCCUPIED ORBITALS (ALPHA)          =   20
 NUMBER OF OCCUPIED ORBITALS (BETA )          =   18
 TOTAL NUMBER OF ATOMS                        =    9
 THE NUCLEAR REPULSION ENERGY IS      158.5229394408

 SELECTED MURRAY-HANDY-LAMING RADIAL GRID

 LEGACY BECKE'S FUZZY CELL METHOD

 SELECTED ORIGINAL BECKE'S PARTITION FUNCTION

     LEBEDEV GRID-BASED DFT OPTIONS
     ------------------------------
     DFTTYP=B3LYP   
     NRAD  =      96     NLEB  =     302
     NRAD0 =      24     NLEB0 =     110
     SWOFF =    5.00E-03 (PURE SCF -> DFT)
     SWITCH=    3.00E-04 (COARSE -> TIGHT GRID)
     THRESH=    0.00E+00 GTHRE=    1.00E+00

 GRIMME'S EMPIRICAL DISPERSION CORRECTION= F

     $CONTRL OPTIONS
     ---------------
 SCFTYP=UHF          RUNTYP=CONICAL      EXETYP=RUN     
 MPLEVL=       0     CITYP =NONE         CCTYP =NONE         VBTYP =NONE    
 DFTTYP=B3LYP        TDDFT =SPNFLP  
 MULT  =       3     ICHARG=       0     NZVAR =       0     COORD =UNIQUE  
 PP    =NONE         RELWFN=NONE         LOCAL =NONE         NUMGRD=       F
 ISPHER=      -1     NOSYM =       0     MAXIT =      60     UNITS =ANGS    
 PLTORB=       F     MOLPLT=       F     AIMPAC=       F     FRIEND=        
 NPRINT=       7     IREST =       0     GEOM  =INPUT   
 NORMF =       0     NORMP =       0     ITOL  =      20     ICUT  =       9
 INTTYP=BEST         GRDTYP=BEST         QMTTOL= 1.0E-06

     $SYSTEM OPTIONS
     ---------------
  REPLICATED MEMORY=    20000000 WORDS (ON EVERY NODE).
 DISTRIBUTED MEMDDI=           0 MILLION WORDS IN AGGREGATE,
 MEMDDI DISTRIBUTED OVER   4 PROCESSORS IS           0 WORDS/PROCESSOR.
 TOTAL MEMORY REQUESTED ON EACH PROCESSOR=    20000000 WORDS.
 TIMLIM=      525600.00 MINUTES, OR     365.0 DAYS.
 PARALL= T  BALTYP=  DLB     KDIAG=    0  COREFL= F
 MXSEQ2=     300 MXSEQ3=     150  mem10=         0  mem22=         0

 Using Gaussians for PCM contribution to MEP, params: 0.10000E+01 0.10000E-07

          ----------------
          PROPERTIES INPUT
          ----------------

     MOMENTS            FIELD           POTENTIAL          DENSITY
 IEMOM =       1   IEFLD =       0   IEPOT =       0   IEDEN =       0
 WHERE =COMASS     WHERE =NUCLEI     WHERE =NUCLEI     WHERE =NUCLEI  
 OUTPUT=BOTH       OUTPUT=BOTH       OUTPUT=BOTH       OUTPUT=BOTH    
 IEMINT=       0   IEFINT=       0                     IEDINT=       0
                                                       MORB  =       0
          EXTRAPOLATION IN EFFECT
          DIIS IN EFFECT
          DIIS or SOSCF will be reset if energy rises
 ORBITAL PRINTING OPTION: NPREO=     1   169     2     1

     -------------------------------
     INTEGRAL TRANSFORMATION OPTIONS
     -------------------------------
     NWORD  =            0
     CUTOFF = 1.0E-09     MPTRAN =       0
     DIRTRF =       T     AOINTS =DUP     

          ----------------------
          INTEGRAL INPUT OPTIONS
          ----------------------
 NOPK  =       1 NORDER=       0 SCHWRZ=       T

          ----------------------
          TDDFT INPUT PARAMETERS
          ----------------------
 NSTATE=       2 IROOT =       1 MULT  =       3
 MAXVEC=      50 NTRIAL=       5 CNVTOL=  1.00E-07
 TDPRP =       F TRNSD =       F TAMMD =       T
 TPA   =       F ALPHA =       F BETA  =       F
 PFREQ =    0.00    0.00
   NRAD=      48   NLEB=     110

     ------------------------------------------
     THE POINT GROUP IS C1 , NAXIS= 0, ORDER= 1
     ------------------------------------------

     DIMENSIONS OF THE SYMMETRY SUBSPACES ARE
 A   =  169

 ..... DONE SETTING UP THE RUN .....
 CPU     0: STEP CPU TIME=     0.02 TOTAL CPU TIME=          0.0 (      0.0 MIN)
 TOTAL WALL CLOCK TIME=          0.1 SECONDS, CPU UTILIZATION IS    33.33%


          -----------------------------
          STATIONARY POINT LOCATION RUN
          -----------------------------

 OBTAINING INITIAL HESSIAN, HESS=GUESS   
 CARTESIAN COORDINATE OPTIMIZATION USING BADGER'S RULE FORCE CONSTANT GUESS

          PARAMETERS CONTROLLING GEOMETRY SEARCH ARE
          METHOD =QA                  UPHESS =BFGS    
          NNEG   =         0          NFRZ   =         0
          NSTEP  =        50          IFOLOW =         1
          HESS   =GUESS               RESTAR =         F
          IHREP  =         0          HSSEND =         F
          NPRT   =         0          NPUN   =         0
          OPTTOL = 1.000E-04          RMIN   = 1.500E-03
          RMAX   = 1.000E-01          RLIM   = 7.000E-02
          DXMAX  = 2.000E-01          PURIFY =         F
          MOVIE  =         F          TRUPD  =         T
          TRMAX  = 3.000E-01          TRMIN  = 5.000E-02
          ITBMAT =         5          STPT   =         F
          STSTEP = 1.000E-02          PROJCT=          T


          ---------------------------------------
          CONICAL INTERSECTION POINT LOCATION RUN
          ---------------------------------------

          IXROOT(1)=          1          IXROOT(2)=          2
          SYMOFF   =          T          DEBUG    =          T
          TOLSTP   =  1.000E-06          TOLGRD   =  5.000E-03
          ALPHA    =  2.000E-02          SIGMA    =  3.500E+00

 CONICAL INTERSECTION SEARCH BY PENALTY-CONSTRAINED OPTIMIZATION METHOD

 REFERENCES: (1) B. G. LEVINE, C. KO, J. QUENNEVILLE, AND T. J. MARTINEZ,
                 MOL. PHYS. 104, 1039 (2006).
             (2) B. G. LEVINE, J. D. COE, AND T. J. MARTINEZ,
                 J. PHYS. CHEM. B 112, 405 (2008).

 PROGRAMMED BY NORIYUKI MINEZAWA


 BEGINNING GEOMETRY SEARCH POINT NSERCH=   0 ...

 COORDINATES OF ALL ATOMS ARE (ANGS)
   ATOM   CHARGE       X              Y              Z
 ------------------------------------------------------------
 C           6.0   1.4141800000  -0.6968100000   0.0102700000
 C           6.0  -1.2770900000  -0.6519600000  -0.0079900000
 C           6.0   0.6964300000   0.6558000000  -0.0143200000
 O           8.0  -0.7249600000   0.5590700000   0.0159800000
 H           1.0  -0.6420600000  -1.5254200000  -0.0179900000
 H           1.0  -2.3532800000  -0.6772200000  -0.0160100000
 H           1.0   0.9632700000   1.1949300000  -0.9282900000
 H           1.0   1.0167000000   1.2280000000   0.8607900000
 O           8.0   2.5883900000  -0.8367300000  -0.0085100000

          ********************
          1 ELECTRON INTEGRALS
          ********************
 ...... END OF ONE-ELECTRON INTEGRALS ......
 CPU     0: STEP CPU TIME=     0.01 TOTAL CPU TIME=          0.0 (      0.0 MIN)
 TOTAL WALL CLOCK TIME=          0.1 SECONDS, CPU UTILIZATION IS    42.86%

          -------------
          GUESS OPTIONS
          -------------
          GUESS =HUCKEL            NORB  =       0          NORDER=       0
          MIX   =       F          PRTMO =       F          PUNMO =       F
          TOLZ  = 1.0E-08          TOLE  = 1.0E-05
          SYMDEN=       F          PURIFY=       F

 INITIAL GUESS ORBITALS GENERATED BY HUCKEL   ROUTINE.
 HUCKEL GUESS REQUIRES    215762 WORDS.

 SYMMETRIES FOR INITIAL GUESS ORBITALS FOLLOW.  ALPHA SET(S).
    20 ORBITALS ARE OCCUPIED (    5 CORE ORBITALS).
     6=A        7=A        8=A        9=A       10=A       11=A       12=A   
    13=A       14=A       15=A       16=A       17=A       18=A       19=A   
    20=A       21=A       22=A       23=A       24=A       25=A       26=A   
    27=A       28=A       29=A       30=A   

 SYMMETRIES FOR INITIAL GUESS ORBITALS FOLLOW.   BETA SET(S).
    18 ORBITALS ARE OCCUPIED (    5 CORE ORBITALS).
     6=A        7=A        8=A        9=A       10=A       11=A       12=A   
    13=A       14=A       15=A       16=A       17=A       18=A       19=A   
    20=A       21=A       22=A       23=A       24=A       25=A       26=A   
    27=A       28=A   
 ...... END OF INITIAL ORBITAL SELECTION ......
 CPU     0: STEP CPU TIME=     0.03 TOTAL CPU TIME=          0.1 (      0.0 MIN)
 TOTAL WALL CLOCK TIME=          0.1 SECONDS, CPU UTILIZATION IS    54.55%

                    ----------------------
                    AO INTEGRAL TECHNOLOGY
                    ----------------------
     S,P,L SHELL ROTATED AXIS INTEGRALS, REPROGRAMMED BY
        KAZUYA ISHIMURA (IMS) AND JOSE SIERRA (SYNSTAR).
     S,P,D,L SHELL ROTATED AXIS INTEGRALS PROGRAMMED BY
        KAZUYA ISHIMURA (INSTITUTE FOR MOLECULAR SCIENCE).
     S,P,D,F,G SHELL TO TOTAL QUARTET ANGULAR MOMENTUM SUM 5,
        ERIC PROGRAM BY GRAHAM FLETCHER (ELORET AND NASA ADVANCED
        SUPERCOMPUTING DIVISION, AMES RESEARCH CENTER).
     S,P,D,F,G,L SHELL GENERAL RYS QUADRATURE PROGRAMMED BY
        MICHEL DUPUIS (PACIFIC NORTHWEST NATIONAL LABORATORY).

          --------------------
          2 ELECTRON INTEGRALS
          --------------------

 DIRECT SCF METHOD SKIPS INTEGRAL STORAGE ON DISK.
 DIRECT TRANSFORMATION SKIPS AO INTEGRAL STORAGE ON DISK.
  ...... END OF TWO-ELECTRON INTEGRALS .....
 CPU     0: STEP CPU TIME=     0.02 TOTAL CPU TIME=          0.1 (      0.0 MIN)
 TOTAL WALL CLOCK TIME=          0.1 SECONDS, CPU UTILIZATION IS    61.54%

          ---------------------------
              U-B3LYP SCF CALCULATION
          ---------------------------

     NUCLEAR ENERGY =       158.5229394408
     MAXIT = 60     NPUNCH=  2     MULT=  3
     EXTRAP=T  DAMP=F  SHIFT=F  RSTRCT=F  DIIS=T  SOSCF=F
         DENSITY MATRIX CONVERGENCE THRESHOLD=  2.00E-06
     COARSE -> FINE DFT GRID SWITCH THRESHOLD=  3.00E-04 (SWITCH IN $DFT)
                   HF -> DFT SWITCH THRESHOLD=  5.00E-03 (SWOFF IN $DFT)
     MEMORY REQUIRED FOR UHF/ROHF ITERS=    684402 WORDS.

 DIRECT SCF CALCULATION, SCHWRZ=T   FDIFF=T
 SCHWARZ INEQUALITY OVERHEAD:     14075 INTEGRALS, T=        0.00

 DFT CODE IS SWITCHING FROM THE FINE GRID NRAD= 96,  NLEB=  302
                      TO THE COARSE GRID NRAD0= 24, NLEB0=  110

     EXCHANGE FUNCTIONAL   =B88&HFX   
     CORRELATION FUNCTIONAL=LYP88&VWN5
     DFT THRESHOLD         =.153E-07
     GRID CHANGE THRESHOLD =.300E-03
 FOR AN EULER-MACLAURIN QUADRATURE USING  96 RADIAL POINTS:
 SMALLEST GAUSSIAN PRIMITIVE EXPONENT=        0.0438000000 OF TYPE -P-
 ON ATOM NUMBER   1 HAS RADIAL NORMALIZATION=  1.000000
  LARGEST GAUSSIAN PRIMITIVE EXPONENT=     8588.5000000000 OF TYPE -S-
 ON ATOM NUMBER   4 HAS RADIAL NORMALIZATION=  1.000000
 DFT IS SWITCHED OFF, PERFORMING PURE SCF UNTIL SWOFF THRESHOLD IS REACHED.

                                                                                NONZERO     BLOCKS
 ITER EX      TOTAL ENERGY        E CHANGE  DENSITY CHANGE    DIIS ERROR      INTEGRALS    SKIPPED
          * * *   INITIATING DIIS PROCEDURE   * * *
   1  0     -264.6428627368  -264.6428627368   0.686087075   0.457376451       83464095     143825
   2  1     -265.5387947855    -0.8959320487   0.065505511   0.067232341       83456011     148312
   3  2     -265.5958559812    -0.0570611957   0.054397001   0.041044079       83061320     164535
   4  3     -265.6113912452    -0.0155352640   0.014257898   0.011820237       82455245     181202
   5  4     -265.6142577232    -0.0028664780   0.007523246   0.005678970       82170559     187617
   6  5     -265.6148812821    -0.0006235589   0.004775918   0.002971368       81591265     199142
 CONVERGED TO SWOFF, SO DFT CALCULATION IS NOW SWITCHED ON.
          * * *   INITIATING DIIS PROCEDURE   * * *
   7  6     -266.9284268931    -1.3135456110   0.086343989   0.081995651       83428653     146465
   8  7     -266.9643006891    -0.0358737960   0.083656701   0.044530159       83123383     161260
   9  8     -266.9496180064     0.0146826827   0.036032453   0.082305013       82729166     173940
  10  9     -266.9718257101    -0.0222077037   0.009140958   0.009156946       82347441     184221
  11 10     -266.9722674405    -0.0004417304   0.003160948   0.002734767       81500564     199869
  12 11     -266.9723219880    -0.0000545476   0.002531491   0.001173136       80457598     217966
  13 12     -266.9723364790    -0.0000144910   0.000873678   0.000429046       80000798     224296
  14 13     -266.9723389628    -0.0000024838   0.000236902   0.000106966       79007044     236739
 DFT CODE IS SWITCHING BACK TO THE FINE GRID
          * * *   INITIATING DIIS PROCEDURE   * * *
  15 14     -266.9753886563    -0.0030496935   0.004646944   0.002446555       83438626     145293
  16 15     -266.9754290888    -0.0000404325   0.001259903   0.000643411       81595022     202368
  17 16     -266.9754223615     0.0000067273   0.000796288   0.001063946       79362386     233768
  18 17     -266.9754326584    -0.0000102969   0.000177128   0.000280832       78626781     243624
  19 18     -266.9754327501    -0.0000000917   0.000064994   0.000167072       75485362     285664
  20 19     -266.9754328515    -0.0000001015   0.000016062   0.000014950       74330759     298449
  21 20     -266.9754328530    -0.0000000015   0.000007226   0.000004978       71577618     328418
  22 21     -266.9754328534    -0.0000000004   0.000004697   0.000001689       68605936     354514
  23 22     -266.9754328534     0.0000000000   0.000000953   0.000000673       67144155     373600
  24 23     -266.9754328533     0.0000000001   0.000000293   0.000000226       61687585     424654

          -----------------
          DENSITY CONVERGED
          -----------------
     TIME TO FORM FOCK OPERATORS=      42.6 SECONDS (       1.8 SEC/ITER)
     FOCK TIME ON FIRST ITERATION=       1.2, LAST ITERATION=       2.5
     TIME TO SOLVE SCF EQUATIONS=       0.5 SECONDS (       0.0 SEC/ITER)

 FINAL U-B3LYP ENERGY IS     -266.9754328533 AFTER  24 ITERATIONS
 DFT EXCHANGE + CORRELATION ENERGY =       -28.0599313614
 TOTAL ELECTRON NUMBER             =        37.9999863093

          --------------------
          SPIN SZ   =    1.000
          S-SQUARED =    2.008
          --------------------

  ----- ALPHA SET ----- 

          ------------
          EIGENVECTORS
          ------------

                      1          2          3          4          5
                  -19.1934   -19.1881   -10.2865   -10.2767   -10.2218
                     A          A          A          A          A   
    1  C  1  S    0.000042  -0.000002   0.564946  -0.007043   0.000031
    2  C  1  S   -0.000182   0.000009   0.453374  -0.005601   0.000144
    3  C  1  X    0.000192   0.000028   0.000713  -0.000247  -0.000154
    4  C  1  Y   -0.000046  -0.000025   0.000504   0.000124   0.000029
    5  C  1  Z   -0.000007  -0.000003  -0.000027   0.000007  -0.000001
    6  C  1  S   -0.000556  -0.001632   0.030256   0.003517  -0.000046
    7  C  1  X    0.000762  -0.000497   0.003805   0.000882   0.001300
    8  C  1  Y   -0.000031   0.000164  -0.000345   0.000420  -0.000300
    9  C  1  Z    0.000004   0.000016  -0.000076  -0.000056   0.000005
   10  C  1  S   -0.001314   0.002700   0.070321  -0.005719   0.000199
   11  C  1  X   -0.005784  -0.004210   0.007507   0.006787   0.003734
   12  C  1  Y    0.000081   0.001727   0.000043  -0.003282  -0.002173
   13  C  1  Z    0.000109   0.000029  -0.000137  -0.000014  -0.000017
   14  C  1  S    0.013017  -0.003739  -0.019022  -0.005265  -0.001919
   15  C  1  X    0.002068   0.001168   0.007001   0.001346  -0.002143
   16  C  1  Y    0.002704  -0.000598  -0.004546  -0.001223  -0.002542
   17  C  1  Z   -0.000132  -0.000030   0.000070   0.000058   0.000013
   18  C  1 XX   -0.000441   0.000055  -0.010566   0.000298   0.000015
   19  C  1 YY   -0.000217  -0.000015  -0.012185  -0.000005   0.000122
   20  C  1 ZZ   -0.000258  -0.000021  -0.012797   0.000357   0.000137
   21  C  1 XY    0.000054   0.000008  -0.000212   0.000114   0.000018
   22  C  1 XZ   -0.000002  -0.000004  -0.000043   0.000000  -0.000001
   23  C  1 YZ   -0.000004  -0.000000  -0.000017   0.000006   0.000001
   24  C  1 XX   -0.000504  -0.001947  -0.017902   0.003462   0.001128
   25  C  1 YY   -0.001329  -0.000434  -0.020934   0.000404  -0.000269
   26  C  1 ZZ   -0.001176  -0.000533  -0.020708   0.001482  -0.000002
   27  C  1 XY   -0.000396   0.000092  -0.000005   0.001047   0.000135
   28  C  1 XZ    0.000022   0.000038  -0.000077  -0.000071  -0.000034
   29  C  1 YZ    0.000024   0.000002   0.000008   0.000008   0.000017
   30  C  2  S   -0.000000   0.000014  -0.000063  -0.000034   0.564960
   31  C  2  S    0.000001  -0.000060   0.000047  -0.000037   0.452934
   32  C  2  X   -0.000071   0.000126   0.000139   0.000018   0.000357
   33  C  2  Y    0.000012   0.000205  -0.000048   0.000002   0.001010
   34  C  2  Z   -0.000002   0.000003   0.000004   0.000005   0.000014
   35  C  2  S    0.001035   0.000478  -0.001358   0.000971   0.028836
   36  C  2  X    0.000396   0.000093  -0.001159  -0.000735   0.000591
   37  C  2  Y   -0.000059   0.000579   0.000202  -0.000572   0.000070
   38  C  2  Z    0.000010   0.000018  -0.000020  -0.000027   0.000006
   39  C  2  S   -0.003917  -0.002050   0.005703  -0.000905   0.072458
   40  C  2  X   -0.001990  -0.000475   0.001566   0.000494   0.000945
   41  C  2  Y   -0.000627  -0.001270   0.001249   0.000235   0.003402
   42  C  2  Z   -0.000046  -0.000043   0.000043   0.000059   0.000101
   43  C  2  S    0.001211   0.003899   0.005390  -0.002698  -0.007391
   44  C  2  X    0.000134   0.001622   0.002318  -0.000167  -0.004408
   45  C  2  Y    0.000025   0.001116  -0.000089  -0.000367  -0.000107
   46  C  2  Z    0.000022   0.000038   0.000016  -0.000002  -0.000027
   47  C  2 XX    0.000076   0.000037  -0.000057  -0.000100  -0.012211
   48  C  2 YY    0.000002   0.000290   0.000024  -0.000021  -0.012170
   49  C  2 ZZ   -0.000030  -0.000141   0.000145  -0.000002  -0.012703
   50  C  2 XY    0.000019   0.000201  -0.000041  -0.000162   0.000052
   51  C  2 XZ    0.000005   0.000008  -0.000006  -0.000007   0.000002
   52  C  2 YZ    0.000001   0.000011  -0.000004  -0.000002   0.000008
   53  C  2 XX    0.000016  -0.000177   0.000700   0.002751  -0.021524
   54  C  2 YY    0.000699   0.000764  -0.000709   0.000292  -0.020054
   55  C  2 ZZ    0.000792   0.000159  -0.000891   0.000031  -0.022352
   56  C  2 XY   -0.000259  -0.000122   0.000700  -0.000188  -0.000394
   57  C  2 XZ   -0.000027  -0.000018   0.000035   0.000019   0.000022
   58  C  2 YZ   -0.000005   0.000012   0.000003   0.000017   0.000055
   59  C  3  S   -0.000015  -0.000010   0.006988   0.565211   0.000051
   60  C  3  S    0.000065   0.000044   0.005625   0.452952  -0.000013
   61  C  3  X    0.000007  -0.000064   0.000112  -0.000795   0.000018
   62  C  3  Y   -0.000055  -0.000031  -0.000210  -0.000492   0.000070
   63  C  3  Z    0.000001   0.000002   0.000014   0.000044  -0.000007
   64  C  3  S   -0.000017   0.000973   0.003603   0.028439  -0.002442
   65  C  3  X    0.000152  -0.000624  -0.000038   0.000636   0.000352
   66  C  3  Y    0.000137   0.000068   0.000006   0.000912  -0.000071
   67  C  3  Z   -0.000010   0.000007  -0.000063  -0.000065   0.000035
   68  C  3  S   -0.003188  -0.008493  -0.003597   0.072757   0.009776
   69  C  3  X    0.002587   0.000680  -0.002501  -0.001267  -0.000791
   70  C  3  Y    0.000319   0.001320   0.001912   0.000328  -0.003718
   71  C  3  Z   -0.000160  -0.000077   0.000020   0.000070   0.000239
   72  C  3  S   -0.011415   0.002197   0.015717   0.012839   0.011669
   73  C  3  X   -0.001606  -0.001114   0.001639  -0.000872   0.000419
   74  C  3  Y    0.002382  -0.000416  -0.004071  -0.002125  -0.002935
   75  C  3  Z   -0.000037   0.000078   0.000122   0.000044   0.000084
   76  C  3 XX    0.000105   0.000582  -0.000072  -0.012167  -0.000145
   77  C  3 YY    0.000048   0.000020  -0.000263  -0.012190  -0.000221
   78  C  3 ZZ    0.000036   0.000049  -0.000033  -0.012227  -0.000017
   79  C  3 XY    0.000032   0.000056   0.000207   0.000048  -0.000105
   80  C  3 XZ   -0.000004  -0.000013  -0.000006   0.000012   0.000000
   81  C  3 YZ   -0.000004  -0.000005   0.000001  -0.000001   0.000003
   82  C  3 XX   -0.000255   0.001323   0.001279  -0.021368  -0.000852
   83  C  3 YY    0.000107   0.000802   0.000074  -0.021337  -0.000400
   84  C  3 ZZ    0.000248   0.000664   0.002207  -0.019069  -0.002439
   85  C  3 XY   -0.000299  -0.000073   0.000701   0.000216  -0.000038
   86  C  3 XZ    0.000013  -0.000027  -0.000021   0.000055  -0.000004
   87  C  3 YZ    0.000007   0.000008   0.000006  -0.000001   0.000039
   88  O  4  S    0.000142   0.552640  -0.000002  -0.000018  -0.000039
   89  O  4  S    0.000096   0.463275   0.000009  -0.000084  -0.000106
   90  O  4  X   -0.000000   0.000854   0.000033   0.000138  -0.000074
   91  O  4  Y    0.000005  -0.001283  -0.000018   0.000050  -0.000194
   92  O  4  Z   -0.000000  -0.000050  -0.000000  -0.000003  -0.000005
   93  O  4  S   -0.000370   0.022767   0.000200   0.001601   0.001477
   94  O  4  X   -0.000003  -0.000633  -0.000115  -0.000055   0.000146
   95  O  4  Y   -0.000020   0.000858   0.000134  -0.000140   0.000494
   96  O  4  Z    0.000000   0.000033  -0.000001   0.000000   0.000019
   97  O  4  S    0.003012   0.033650  -0.002618  -0.002957  -0.005261
   98  O  4  X    0.000996   0.001031  -0.001461  -0.001551   0.001542
   99  O  4  Y   -0.000324  -0.000876   0.000388  -0.000024   0.002554
  100  O  4  Z   -0.000010  -0.000021   0.000035   0.000023   0.000013
  101  O  4  S    0.003744  -0.009971  -0.006028  -0.010818  -0.013538
  102  O  4  X    0.000934  -0.000310  -0.000338  -0.003866   0.000070
  103  O  4  Y   -0.000510   0.000154   0.001690  -0.000244   0.005159
  104  O  4  Z   -0.000016   0.000001   0.000045   0.000025   0.000079
  105  O  4 XX   -0.000024  -0.006965   0.000043   0.000077  -0.000080
  106  O  4 YY   -0.000023  -0.007037  -0.000036  -0.000137   0.000108
  107  O  4 ZZ   -0.000016  -0.007002   0.000038  -0.000094  -0.000157
  108  O  4 XY    0.000012   0.000151   0.000011  -0.000012   0.000086
  109  O  4 XZ    0.000001   0.000000  -0.000001  -0.000006   0.000005
  110  O  4 YZ   -0.000000  -0.000001   0.000002  -0.000001   0.000006
  111  O  4 XX   -0.000186  -0.013263  -0.000146  -0.001040   0.000445
  112  O  4 YY   -0.000220  -0.013008   0.000279   0.001085  -0.001359
  113  O  4 ZZ   -0.000268  -0.012721   0.000028   0.000838   0.001146
  114  O  4 XY   -0.000080  -0.000448   0.000058   0.000019  -0.001153
  115  O  4 XZ   -0.000005   0.000002   0.000007   0.000057  -0.000035
  116  O  4 YZ    0.000001  -0.000004  -0.000010   0.000008  -0.000055
  117  H  5  S    0.000025   0.000040  -0.000124   0.000074  -0.000188
  118  H  5  S   -0.000207  -0.000236   0.000632  -0.001413  -0.001607
  119  H  5  S    0.000021  -0.000839  -0.001130   0.001854  -0.002671
  120  H  5  X   -0.000022   0.000076  -0.000161  -0.000168   0.001067
  121  H  5  Y   -0.000041  -0.000081   0.000224  -0.000524  -0.001385
  122  H  5  Z    0.000001   0.000003  -0.000001  -0.000004  -0.000018
  123  H  6  S    0.000102   0.000097  -0.000058  -0.000086  -0.000169
  124  H  6  S    0.000077   0.000055  -0.001540  -0.002471  -0.000112
  125  H  6  S   -0.000718   0.000474   0.000821   0.001140  -0.006124
  126  H  6  X    0.000098  -0.000127  -0.000471  -0.000568  -0.001382
  127  H  6  Y   -0.000020  -0.000132   0.000099  -0.000081  -0.000285
  128  H  6  Z   -0.000004  -0.000007   0.000001  -0.000014  -0.000011
  129  H  7  S   -0.000025   0.000031  -0.000122  -0.000187   0.000053
  130  H  7  S   -0.000001   0.000355  -0.001581  -0.002124   0.001000
  131  H  7  S    0.000509   0.001055   0.000521  -0.006303  -0.000650
  132  H  7  X    0.000049   0.000141   0.000124   0.000546  -0.000085
  133  H  7  Y   -0.000071  -0.000033   0.000257   0.000949  -0.000187
  134  H  7  Z    0.000043  -0.000043  -0.000216  -0.001409   0.000045
  135  H  8  S   -0.000033   0.000030  -0.000118  -0.000173   0.000036
  136  H  8  S    0.000091   0.000387  -0.001456  -0.002084   0.000802
  137  H  8  S    0.000576   0.001055   0.000368  -0.006325  -0.000835
  138  H  8  X    0.000044   0.000131   0.000151   0.000636  -0.000083
  139  H  8  Y   -0.000092  -0.000041   0.000214   0.000995  -0.000181
  140  H  8  Z   -0.000047   0.000034   0.000157   0.001318   0.000005
  141  O  9  S    0.552538  -0.000134  -0.000139  -0.000007   0.000000
  142  O  9  S    0.463384  -0.000140  -0.000153   0.000066  -0.000001
  143  O  9  X   -0.001518   0.000028  -0.000513  -0.000074  -0.000061
  144  O  9  Y    0.000204  -0.000020   0.000055   0.000060   0.000005
  145  O  9  Z    0.000024   0.000000   0.000009  -0.000000  -0.000001
  146  O  9  S    0.022022  -0.000188   0.000694  -0.000091   0.000159
  147  O  9  X    0.001106  -0.000150   0.001971   0.000423   0.000304
  148  O  9  Y   -0.000191   0.000092  -0.000227  -0.000306  -0.000031
  149  O  9  Z   -0.000018  -0.000000  -0.000035   0.000001   0.000002
  150  O  9  S    0.037578   0.003987  -0.009397  -0.005769  -0.003438
  151  O  9  X   -0.002487  -0.001498   0.005669   0.002452   0.001350
  152  O  9  Y    0.000688  -0.000105  -0.001084  -0.000802  -0.000272
  153  O  9  Z    0.000010   0.000025  -0.000055  -0.000026  -0.000038
  154  O  9  S   -0.010212   0.002115  -0.015671  -0.004604  -0.003063
  155  O  9  X    0.000028  -0.000520   0.003579   0.001193   0.001794
  156  O  9  Y   -0.000400   0.000214   0.000035  -0.000279   0.000456
  157  O  9  Z    0.000028   0.000015  -0.000120  -0.000029  -0.000006
  158  O  9 XX   -0.006916  -0.000040   0.000310   0.000051   0.000018
  159  O  9 YY   -0.006913  -0.000014  -0.000112   0.000037  -0.000004
  160  O  9 ZZ   -0.007145  -0.000014  -0.000091   0.000114  -0.000013
  161  O  9 XY    0.000087  -0.000013  -0.000077  -0.000018  -0.000008
  162  O  9 XZ   -0.000010   0.000000  -0.000006   0.000002  -0.000001
  163  O  9 YZ   -0.000011   0.000001   0.000002   0.000002   0.000001
  164  O  9 XX   -0.013178   0.000014  -0.002759  -0.000122  -0.000221
  165  O  9 YY   -0.013110  -0.000206   0.001016   0.000245   0.000120
  166  O  9 ZZ   -0.013108  -0.000202   0.001010  -0.000011   0.000157
  167  O  9 XY   -0.000097   0.000033   0.000643   0.000321   0.000086
  168  O  9 XZ    0.000013  -0.000003   0.000061  -0.000007   0.000010
  169  O  9 YZ   -0.000001  -0.000003  -0.000011  -0.000011  -0.000004

                      6          7          8          9         10
                   -1.1167    -1.0995    -0.7856    -0.6793    -0.5674
                     A          A          A          A          A   
    1  C  1  S   -0.062856   0.012354  -0.032196  -0.045615  -0.065923
    2  C  1  S   -0.091073   0.017747  -0.048811  -0.069109  -0.100243
    3  C  1  X    0.090549  -0.035080  -0.042115  -0.043369  -0.005895
    4  C  1  Y   -0.004827   0.007713   0.052061   0.045543   0.003965
    5  C  1  Z   -0.001626   0.000436  -0.000490  -0.000735   0.000873
    6  C  1  S    0.214584  -0.038468   0.150341   0.213299   0.320932
    7  C  1  X    0.097888  -0.042666  -0.060078  -0.054023  -0.007086
    8  C  1  Y   -0.001962   0.013606   0.077098   0.064040   0.006357
    9  C  1  Z   -0.001766   0.000409  -0.000693  -0.001118   0.001332
   10  C  1  S    0.081100   0.000383   0.026948   0.087409   0.133055
   11  C  1  X   -0.007934  -0.012956  -0.036393  -0.021930  -0.015590
   12  C  1  Y   -0.001274   0.018672   0.030788   0.021874  -0.004852
   13  C  1  Z    0.000106  -0.000398   0.000092  -0.000678   0.001362
   14  C  1  S   -0.007276  -0.016703   0.003269   0.035400   0.011310
   15  C  1  X    0.007924  -0.005112  -0.007853  -0.016524  -0.010233
   16  C  1  Y   -0.001948  -0.005163   0.003170   0.007099   0.001190
   17  C  1  Z   -0.000165   0.000235  -0.000025  -0.000194  -0.000019
   18  C  1 XX    0.022963  -0.006001  -0.002321   0.000404   0.009023
   19  C  1 YY   -0.003250   0.002013   0.009043   0.008713   0.004788
   20  C  1 ZZ   -0.006285   0.001365  -0.000825   0.000411   0.000799
   21  C  1 XY   -0.003792  -0.000145  -0.002560  -0.000686  -0.002677
   22  C  1 XZ   -0.000562   0.000173   0.000088   0.000038  -0.000131
   23  C  1 YZ   -0.000027  -0.000011  -0.000259  -0.000251  -0.000050
   24  C  1 XX   -0.000259  -0.001811   0.003417   0.015305   0.029024
   25  C  1 YY   -0.016345   0.011336   0.023915   0.021400   0.017899
   26  C  1 ZZ   -0.013277   0.003967   0.010870   0.010178   0.017222
   27  C  1 XY    0.003202  -0.003310  -0.006595   0.003728  -0.001327
   28  C  1 XZ   -0.000262   0.000269   0.000341   0.000006  -0.000235
   29  C  1 YZ    0.000093  -0.000265  -0.000150  -0.000404   0.000260
   30  C  2  S   -0.010511  -0.039351   0.049043  -0.078400   0.043207
   31  C  2  S   -0.015055  -0.056754   0.072965  -0.118250   0.065945
   32  C  2  X    0.006949   0.024976  -0.002181  -0.001119   0.051736
   33  C  2  Y    0.012314   0.047198  -0.038553  -0.017410   0.062804
   34  C  2  Z    0.000219   0.000862  -0.000966  -0.000130   0.002826
   35  C  2  S    0.037210   0.137250  -0.195719   0.332018  -0.192152
   36  C  2  X    0.010346   0.034187  -0.005436  -0.001383   0.068045
   37  C  2  Y    0.016256   0.062695  -0.055283  -0.016483   0.084759
   38  C  2  Z    0.000311   0.001126  -0.001364  -0.000020   0.004001
   39  C  2  S    0.013252   0.058147  -0.102487   0.184205  -0.115415
   40  C  2  X   -0.005044   0.002139  -0.009295   0.003763   0.030269
   41  C  2  Y    0.001199   0.010807  -0.008436  -0.020335   0.046872
   42  C  2  Z   -0.000097   0.000096  -0.000443  -0.000441   0.002280
   43  C  2  S    0.008029  -0.002303  -0.037061   0.035858  -0.004154
   44  C  2  X    0.001877  -0.002316  -0.009006   0.007873   0.002578
   45  C  2  Y   -0.000851  -0.000809  -0.007822   0.008188   0.004658
   46  C  2  Z    0.000045  -0.000118  -0.000056   0.000128   0.000274
   47  C  2 XX    0.000738   0.001425  -0.001147   0.006750  -0.006648
   48  C  2 YY    0.003267   0.012275  -0.010478   0.005631   0.003497
   49  C  2 ZZ   -0.000629  -0.002443   0.000569   0.002136  -0.003519
   50  C  2 XY    0.002434   0.008926  -0.003196  -0.002389   0.006636
   51  C  2 XZ    0.000053   0.000155  -0.000094   0.000040   0.000194
   52  C  2 YZ    0.000083   0.000316  -0.000298   0.000107   0.000411
   53  C  2 XX   -0.002226  -0.004413   0.010073   0.013170  -0.007433
   54  C  2 YY    0.000713   0.001462  -0.010666   0.008788  -0.002210
   55  C  2 ZZ    0.000025  -0.004572  -0.002726   0.010892  -0.014494
   56  C  2 XY    0.002483   0.010180  -0.002270  -0.001845   0.007040
   57  C  2 XZ   -0.000053   0.000107  -0.000114  -0.000187   0.000355
   58  C  2 YZ    0.000005   0.000121  -0.000256   0.000021   0.000525
   59  C  3  S   -0.017397  -0.033218  -0.093434  -0.019275   0.029913
   60  C  3  S   -0.025456  -0.048120  -0.140401  -0.029603   0.045482
   61  C  3  X   -0.004180  -0.042513   0.010197   0.084696   0.000770
   62  C  3  Y   -0.008048  -0.004523  -0.006477  -0.050890  -0.106687
   63  C  3  Z    0.000298   0.000796   0.000684  -0.000636   0.005639
   64  C  3  S    0.073511   0.121120   0.399614   0.094902  -0.124689
   65  C  3  X   -0.002544  -0.062709   0.012379   0.122889   0.005788
   66  C  3  Y   -0.017227  -0.008248  -0.017559  -0.080627  -0.153199
   67  C  3  Z    0.000409   0.000917   0.001344  -0.000599   0.008000
   68  C  3  S    0.000870   0.014830   0.121074   0.014530  -0.109040
   69  C  3  X    0.005605  -0.024600   0.025544   0.046636   0.004497
   70  C  3  Y   -0.004757   0.008392   0.006304  -0.036077  -0.081812
   71  C  3  Z   -0.000260   0.000019  -0.000783   0.000154   0.003849
   72  C  3  S    0.003232   0.022990   0.031572  -0.064434  -0.024952
   73  C  3  X    0.000038   0.004551  -0.005522   0.017163   0.006489
   74  C  3  Y   -0.001205  -0.004262  -0.001048   0.011487  -0.003665
   75  C  3  Z    0.000110  -0.000006  -0.000174  -0.000449   0.000395
   76  C  3 XX    0.004497   0.012488   0.006441  -0.009974   0.000629
   77  C  3 YY    0.001176  -0.001357   0.007205   0.009778   0.004040
   78  C  3 ZZ   -0.001040  -0.001953   0.004104   0.002108  -0.008775
   79  C  3 XY   -0.001445   0.002147  -0.004046  -0.003216  -0.003808
   80  C  3 XZ   -0.000064  -0.000322   0.000122   0.000536  -0.000222
   81  C  3 YZ   -0.000052  -0.000072  -0.000065  -0.000126  -0.000158
   82  C  3 XX    0.007180   0.011146   0.013993  -0.004585  -0.002677
   83  C  3 YY    0.006221  -0.004130   0.016464   0.022921   0.003090
   84  C  3 ZZ    0.002741  -0.005933   0.011813   0.007925  -0.005786
   85  C  3 XY   -0.002486   0.008275  -0.009512  -0.001066  -0.003917
   86  C  3 XZ    0.000016  -0.000481  -0.000009   0.000767  -0.000274
   87  C  3 YZ   -0.000104  -0.000350   0.000064   0.000040  -0.000311
   88  O  4  S   -0.029150  -0.107212   0.017489   0.039182  -0.016127
   89  O  4  S   -0.045017  -0.165477   0.027310   0.061251  -0.025460
   90  O  4  X    0.006567   0.018687   0.091547  -0.060336  -0.020783
   91  O  4  Y   -0.010487  -0.038778   0.057703  -0.084437  -0.042687
   92  O  4  Z   -0.000429  -0.001561  -0.000227  -0.000376   0.004510
   93  O  4  S    0.136656   0.505192  -0.089888  -0.192842   0.081392
   94  O  4  X    0.011882   0.033605   0.136977  -0.093069  -0.029980
   95  O  4  Y   -0.017908  -0.065854   0.088138  -0.121974  -0.064806
   96  O  4  Z   -0.000751  -0.002698  -0.000327  -0.000383   0.006620
   97  O  4  S    0.076043   0.258094  -0.032304  -0.160221   0.070650
   98  O  4  X    0.007693   0.020635   0.087237  -0.052652  -0.014259
   99  O  4  Y   -0.006533  -0.022368   0.041028  -0.078262  -0.041403
  100  O  4  Z   -0.000296  -0.001120  -0.000451  -0.000270   0.005155
  101  O  4  S    0.002564  -0.005899   0.020223  -0.008535   0.009076
  102  O  4  X    0.000698  -0.007426  -0.004282   0.011173   0.009557
  103  O  4  Y    0.002923   0.002543  -0.008774   0.012073   0.014663
  104  O  4  Z    0.000014   0.000322  -0.000111  -0.000290  -0.000400
  105  O  4 XX    0.002024   0.007192   0.003200  -0.005397  -0.000587
  106  O  4 YY    0.001980   0.007627  -0.005593   0.001790   0.002573
  107  O  4 ZZ    0.000752   0.003174  -0.000790  -0.003317   0.000744
  108  O  4 XY    0.000546   0.002411  -0.002637   0.000824  -0.001001
  109  O  4 XZ   -0.000018  -0.000059  -0.000174   0.000122   0.000131
  110  O  4 YZ    0.000032   0.000118  -0.000117   0.000128   0.000001
  111  O  4 XX    0.008800   0.031430   0.008144  -0.015692  -0.000989
  112  O  4 YY    0.006663   0.026666  -0.015575   0.003206   0.005819
  113  O  4 ZZ    0.003667   0.014666  -0.005079  -0.008687   0.001680
  114  O  4 XY    0.001255   0.004778  -0.005977  -0.003110  -0.006832
  115  O  4 XZ   -0.000104  -0.000295  -0.000484   0.000280   0.000475
  116  O  4 YZ    0.000096   0.000343  -0.000221   0.000354  -0.000115
  117  H  5  S    0.003716   0.011457  -0.019626   0.077195  -0.051069
  118  H  5  S    0.004954   0.019121  -0.020687   0.090921  -0.059124
  119  H  5  S   -0.004722  -0.005172   0.007296  -0.002250  -0.005354
  120  H  5  X   -0.001029  -0.001366   0.002109  -0.006819   0.009159
  121  H  5  Y    0.000735   0.003569  -0.004523   0.011384  -0.004357
  122  H  5  Z    0.000003   0.000050  -0.000059   0.000151   0.000081
  123  H  6  S    0.002859   0.010415  -0.033034   0.067154  -0.077821
  124  H  6  S    0.003195   0.012825  -0.048440   0.074892  -0.101927
  125  H  6  S   -0.004870  -0.007771  -0.000172   0.013192  -0.014528
  126  H  6  X    0.001073   0.003386  -0.007500   0.010614  -0.012555
  127  H  6  Y    0.000608   0.001950  -0.000711  -0.000889   0.001731
  128  H  6  Z    0.000001   0.000044  -0.000100   0.000007   0.000039
  129  H  7  S    0.006526   0.011253   0.067424   0.015120  -0.070315
  130  H  7  S    0.007492   0.018265   0.083187   0.020369  -0.090065
  131  H  7  S    0.001274  -0.002987  -0.003529   0.006049  -0.015502
  132  H  7  X   -0.000264  -0.001998  -0.002278   0.002262   0.003093
  133  H  7  Y   -0.001144  -0.002173  -0.006949  -0.004412   0.000974
  134  H  7  Z    0.001541   0.002783   0.011887   0.002547  -0.010092
  135  H  8  S    0.006557   0.010964   0.068258   0.015947  -0.066353
  136  H  8  S    0.007932   0.018491   0.084295   0.020319  -0.084452
  137  H  8  S    0.001296  -0.002989  -0.002910   0.006178  -0.014794
  138  H  8  X   -0.000372  -0.002345  -0.002950   0.002088   0.003509
  139  H  8  Y   -0.001316  -0.002309  -0.007514  -0.004536   0.000903
  140  H  8  Z   -0.001522  -0.002661  -0.011484  -0.002391   0.009617
  141  O  9  S   -0.105591   0.032429   0.021643   0.025343   0.039554
  142  O  9  S   -0.162563   0.049937   0.033499   0.039402   0.061676
  143  O  9  X   -0.075744   0.022593  -0.003252  -0.024418  -0.117724
  144  O  9  Y    0.009548  -0.002149   0.015356   0.020980   0.008691
  145  O  9  Z    0.001214  -0.000384  -0.000316  -0.000231   0.002629
  146  O  9  S    0.483810  -0.147385  -0.104719  -0.123163  -0.193559
  147  O  9  X   -0.112300   0.032736  -0.004613  -0.032250  -0.163345
  148  O  9  Y    0.014134  -0.002803   0.022595   0.029666   0.011802
  149  O  9  Z    0.001791  -0.000572  -0.000463  -0.000390   0.003721
  150  O  9  S    0.280034  -0.085915  -0.061312  -0.116806  -0.221918
  151  O  9  X   -0.043399   0.011423  -0.009272  -0.015530  -0.094404
  152  O  9  Y    0.005822  -0.002653   0.015004   0.015981   0.003826
  153  O  9  Z    0.000629  -0.000153  -0.000232  -0.000345   0.002257
  154  O  9  S   -0.005616   0.011931   0.010483  -0.008224  -0.027257
  155  O  9  X    0.002329  -0.002153  -0.002228   0.001387  -0.006094
  156  O  9  Y    0.000533  -0.000847  -0.006083  -0.003273   0.000483
  157  O  9  Z    0.000029   0.000096   0.000287   0.000328   0.000081
  158  O  9 XX    0.014171  -0.004343  -0.002070  -0.001161   0.002642
  159  O  9 YY    0.003610  -0.001100  -0.001248  -0.002067  -0.005552
  160  O  9 ZZ    0.002103  -0.000733  -0.001438  -0.002165  -0.005065
  161  O  9 XY   -0.001174   0.000194  -0.001183  -0.001512  -0.001198
  162  O  9 XZ   -0.000246   0.000077   0.000044   0.000026  -0.000169
  163  O  9 YZ   -0.000040   0.000011   0.000022   0.000031   0.000053
  164  O  9 XX    0.024827  -0.006640  -0.003291  -0.003168   0.001053
  165  O  9 YY    0.009119  -0.002463  -0.003668  -0.004478  -0.011416
  166  O  9 ZZ    0.008404  -0.001775  -0.003719  -0.004198  -0.008978
  167  O  9 XY   -0.001680   0.000668  -0.003683  -0.002906  -0.001839
  168  O  9 XZ   -0.000300   0.000100   0.000086   0.000116  -0.000251
  169  O  9 YZ   -0.000002   0.000023   0.000071   0.000060   0.000121

                     11         12         13         14         15
                   -0.5409    -0.5206    -0.5123    -0.4494    -0.4360
                     A          A          A          A          A   
    1  C  1  S   -0.006316   0.001283   0.024790  -0.006813   0.001836
    2  C  1  S   -0.010090   0.001918   0.036907  -0.010319   0.002943
    3  C  1  X   -0.037359  -0.003097  -0.099927  -0.000171   0.013024
    4  C  1  Y   -0.061542   0.002683   0.081726   0.106533   0.011968
    5  C  1  Z    0.000007   0.068818  -0.002116  -0.009744   0.135211
    6  C  1  S    0.036136  -0.005162  -0.106315   0.045027  -0.010033
    7  C  1  X   -0.056058  -0.004110  -0.138462  -0.005519   0.018344
    8  C  1  Y   -0.090669   0.004063   0.117275   0.153723   0.017274
    9  C  1  Z    0.000024   0.105035  -0.003299  -0.014253   0.197840
   10  C  1  S    0.063324  -0.002507  -0.076739  -0.077724  -0.009235
   11  C  1  X   -0.046831  -0.000326  -0.028505   0.026679   0.012867
   12  C  1  Y   -0.031098   0.002114   0.051511   0.045523   0.008592
   13  C  1  Z   -0.000447   0.059169  -0.002145  -0.007260   0.117156
   14  C  1  S   -0.032556  -0.014875  -0.003110   0.073670   0.012341
   15  C  1  X    0.003905   0.002523   0.006535  -0.009912   0.000712
   16  C  1  Y   -0.013543  -0.003027   0.010977   0.037003   0.006512
   17  C  1  Z    0.000290  -0.004672   0.000131  -0.001457   0.024391
   18  C  1 XX    0.001685  -0.000400  -0.012600   0.003049   0.001688
   19  C  1 YY   -0.002530   0.000253   0.004333  -0.000013  -0.000965
   20  C  1 ZZ    0.000983  -0.000207   0.000796  -0.000846  -0.000839
   21  C  1 XY   -0.004007   0.000152   0.003124   0.009022   0.001644
   22  C  1 XZ    0.000036   0.002704   0.000136  -0.001115   0.017757
   23  C  1 YZ    0.000084   0.003848  -0.000267  -0.000219  -0.002175
   24  C  1 XX    0.020013   0.000440  -0.006186   0.009469   0.000416
   25  C  1 YY   -0.002501   0.001076   0.012120   0.003916  -0.002276
   26  C  1 ZZ    0.002424  -0.000457   0.002571   0.009923  -0.001867
   27  C  1 XY   -0.011290   0.000112   0.001011   0.008128   0.002269
   28  C  1 XZ    0.000280  -0.000983   0.000122  -0.001213   0.022465
   29  C  1 YZ    0.000182   0.013706  -0.000611  -0.000131  -0.002327
   30  C  2  S   -0.015584  -0.001261   0.014103  -0.001267  -0.000957
   31  C  2  S   -0.024223  -0.001947   0.021842  -0.002368  -0.001452
   32  C  2  X    0.061373  -0.001069   0.078059  -0.105215   0.004795
   33  C  2  Y   -0.117569  -0.006317   0.048940  -0.055298  -0.001523
   34  C  2  Z   -0.002896   0.044444   0.001247  -0.001597  -0.050919
   35  C  2  S    0.075507   0.005167  -0.068398   0.005453   0.004916
   36  C  2  X    0.086812  -0.001412   0.103556  -0.143196   0.007275
   37  C  2  Y   -0.157673  -0.008841   0.069669  -0.077844  -0.001745
   38  C  2  Z   -0.004043   0.066844   0.001704  -0.002282  -0.077255
   39  C  2  S    0.033163   0.008031  -0.020399   0.035352   0.002308
   40  C  2  X    0.035155  -0.000152   0.063049  -0.084835   0.005142
   41  C  2  Y   -0.078783  -0.002913   0.039786  -0.024243  -0.000983
   42  C  2  Z   -0.002422   0.036801   0.001123  -0.000670  -0.048036
   43  C  2  S   -0.020532   0.000926   0.041700   0.019984   0.006633
   44  C  2  X   -0.001192   0.000551   0.021275  -0.001557   0.002952
   45  C  2  Y   -0.012828  -0.000483   0.006986   0.002468  -0.000037
   46  C  2  Z   -0.000257   0.005319   0.000252   0.000195  -0.008657
   47  C  2 XX    0.005880   0.000318  -0.004219   0.005855   0.000148
   48  C  2 YY   -0.006601  -0.000586   0.005265  -0.009196   0.000273
   49  C  2 ZZ    0.002077   0.000365  -0.002131   0.001658  -0.000125
   50  C  2 XY   -0.005278  -0.000506   0.006740  -0.005377   0.000225
   51  C  2 XZ   -0.000151   0.003272   0.000073  -0.000076  -0.002492
   52  C  2 YZ   -0.000417   0.006073   0.000198  -0.000231  -0.005757
   53  C  2 XX    0.021872   0.000502  -0.000248   0.008695   0.000165
   54  C  2 YY   -0.007682  -0.000689  -0.001309  -0.004719   0.000745
   55  C  2 ZZ    0.009733   0.000373  -0.012963   0.004275   0.000410
   56  C  2 XY    0.001544  -0.000198   0.009874  -0.005132   0.000778
   57  C  2 XZ   -0.000220   0.004633   0.000210   0.000151  -0.003786
   58  C  2 YZ   -0.000490   0.005223   0.000366  -0.000070  -0.006156
   59  C  3  S    0.009473   0.000187  -0.004030   0.014157   0.000950
   60  C  3  S    0.014585   0.000291  -0.006244   0.021846   0.001477
   61  C  3  X   -0.112799   0.001854   0.028228  -0.046580  -0.005032
   62  C  3  Y   -0.045403   0.001558  -0.078284  -0.093904  -0.000753
   63  C  3  Z   -0.001525   0.173762  -0.002122   0.001406  -0.021890
   64  C  3  S   -0.031766  -0.001698   0.024708  -0.069543  -0.003857
   65  C  3  X   -0.167895   0.002612   0.037607  -0.061819  -0.007646
   66  C  3  Y   -0.059460   0.002287  -0.117226  -0.132074  -0.000840
   67  C  3  Z   -0.001925   0.249156  -0.002880   0.001853  -0.032229
   68  C  3  S   -0.105242   0.002480  -0.008034   0.014459  -0.001091
   69  C  3  X   -0.083541   0.000193   0.017969  -0.018367  -0.004142
   70  C  3  Y   -0.019253   0.001622  -0.074696  -0.112974  -0.003645
   71  C  3  Z   -0.002059   0.137488  -0.001325   0.001178  -0.019423
   72  C  3  S    0.040478   0.016304  -0.052782  -0.097074  -0.022574
   73  C  3  X   -0.007081   0.001506   0.019803  -0.004700  -0.000527
   74  C  3  Y   -0.012303  -0.004277   0.002795   0.013991   0.004587
   75  C  3  Z   -0.000352   0.020974  -0.000737  -0.000096  -0.013329
   76  C  3 XX    0.009984   0.000273  -0.001475   0.009197   0.001135
   77  C  3 YY   -0.002552   0.000171   0.004556  -0.000847  -0.000819
   78  C  3 ZZ   -0.007189  -0.000476  -0.002276  -0.009789  -0.000382
   79  C  3 XY    0.003628   0.000301   0.000665  -0.008954   0.000055
   80  C  3 XZ   -0.000682   0.000611   0.000006  -0.000701   0.005622
   81  C  3 YZ   -0.000359   0.006219  -0.000283  -0.000040  -0.003726
   82  C  3 XX    0.015070  -0.000640   0.002123   0.004249   0.002702
   83  C  3 YY   -0.002168  -0.000839   0.010672  -0.009420  -0.001069
   84  C  3 ZZ   -0.004147  -0.000330  -0.002483  -0.015486  -0.000774
   85  C  3 XY    0.005743   0.000333   0.008048  -0.018787  -0.000025
   86  C  3 XZ   -0.000954  -0.004097  -0.000235  -0.001210   0.020407
   87  C  3 YZ    0.000321  -0.003170  -0.000253   0.000429  -0.012348
   88  O  4  S    0.013903  -0.000271   0.006807  -0.013091   0.000665
   89  O  4  S    0.021360  -0.000407   0.010381  -0.020373   0.000999
   90  O  4  X    0.158318   0.005172  -0.005629   0.047989   0.006317
   91  O  4  Y    0.005686   0.001855  -0.103873   0.115823  -0.002738
   92  O  4  Z   -0.003421   0.134237  -0.001420   0.002898  -0.121208
   93  O  4  S   -0.069870   0.001340  -0.030006   0.064603  -0.002355
   94  O  4  X    0.235097   0.007752  -0.009881   0.073597   0.009483
   95  O  4  Y    0.010751   0.002703  -0.152727   0.169498  -0.003999
   96  O  4  Z   -0.005014   0.198116  -0.002043   0.004203  -0.178401
   97  O  4  S   -0.054000   0.001337  -0.058879   0.074403  -0.008190
   98  O  4  X    0.167583   0.005697  -0.000157   0.050038   0.006449
   99  O  4  Y   -0.007023   0.001950  -0.106747   0.131688  -0.002685
  100  O  4  Z   -0.004069   0.161000  -0.001609   0.003203  -0.148752
  101  O  4  S    0.006933  -0.005832  -0.019930   0.014303  -0.000161
  102  O  4  X   -0.010072  -0.001346   0.012169   0.011594  -0.000052
  103  O  4  Y   -0.011347   0.001644   0.017515   0.027174   0.000074
  104  O  4  Z    0.000387  -0.010005   0.000195   0.000419  -0.010459
  105  O  4 XX    0.001878   0.000225  -0.002478   0.004318  -0.000048
  106  O  4 YY   -0.003620  -0.000053   0.002757  -0.004108  -0.000094
  107  O  4 ZZ   -0.002250  -0.000096  -0.002017   0.002451  -0.000096
  108  O  4 XY   -0.004226  -0.000115  -0.000846  -0.001733  -0.000090
  109  O  4 XZ   -0.000255   0.002573   0.000005  -0.000043  -0.000877
  110  O  4 YZ    0.000013  -0.001879   0.000137  -0.000144   0.001832
  111  O  4 XX    0.002974   0.001096  -0.007311   0.015630  -0.000163
  112  O  4 YY   -0.006139   0.000198   0.008187  -0.012152   0.000149
  113  O  4 ZZ   -0.007418  -0.000881  -0.003397   0.004787   0.000584
  114  O  4 XY   -0.017302  -0.000088  -0.010766  -0.000328  -0.000850
  115  O  4 XZ   -0.000938   0.014215  -0.000187  -0.000071  -0.004420
  116  O  4 YZ    0.000254  -0.008955   0.000445  -0.000488   0.010299
  117  H  5  S    0.106833   0.004014  -0.013183  -0.011675   0.003064
  118  H  5  S    0.143838   0.005285  -0.012596  -0.018229   0.003452
  119  H  5  S    0.025078   0.001727  -0.007372   0.004801   0.000968
  120  H  5  X   -0.008376  -0.000525   0.004499  -0.004348  -0.000606
  121  H  5  Y    0.011630   0.000303   0.001302  -0.004848   0.000308
  122  H  5  Z    0.000045   0.002747   0.000043  -0.000167  -0.002400
  123  H  6  S   -0.018590   0.002127  -0.070948   0.086427  -0.002245
  124  H  6  S   -0.035128   0.002350  -0.099860   0.113209  -0.002327
  125  H  6  S   -0.005179   0.000715  -0.012125   0.037402  -0.000747
  126  H  6  X   -0.002042   0.000297  -0.011072   0.010100  -0.000020
  127  H  6  Y   -0.004056  -0.000214   0.001161  -0.001390  -0.000069
  128  H  6  Z   -0.000197   0.002631  -0.000059   0.000057  -0.003225
  129  H  7  S   -0.046945  -0.107281  -0.017874  -0.069156   0.010870
  130  H  7  S   -0.056797  -0.149679  -0.020407  -0.100699   0.013866
  131  H  7  S   -0.007621  -0.031293  -0.001815  -0.034374   0.002749
  132  H  7  X   -0.002808   0.004881   0.001963   0.001273  -0.000157
  133  H  7  Y    0.001629   0.010054  -0.003509   0.000844  -0.000590
  134  H  7  Z   -0.007007  -0.007205  -0.002429  -0.009717  -0.000286
  135  H  8  S   -0.053603   0.104253  -0.021294  -0.071862  -0.015273
  136  H  8  S   -0.065947   0.145948  -0.025529  -0.104165  -0.020677
  137  H  8  S   -0.008201   0.028439  -0.003236  -0.036485  -0.000310
  138  H  8  X   -0.002033  -0.005358   0.002308   0.002167   0.000321
  139  H  8  Y    0.002553  -0.010327  -0.003084   0.001388   0.000700
  140  H  8  Z    0.007602  -0.006092   0.002695   0.009721   0.000392
  141  O  9  S   -0.006157  -0.001754  -0.037229  -0.000149   0.000695
  142  O  9  S   -0.009538  -0.002730  -0.058018  -0.000222   0.001085
  143  O  9  X    0.012097   0.009218   0.194989   0.025009  -0.002286
  144  O  9  Y   -0.062939   0.001008   0.046321   0.165801   0.025535
  145  O  9  Z   -0.000405   0.062186  -0.006802  -0.015393   0.224390
  146  O  9  S    0.030888   0.008757   0.184333  -0.000842  -0.003250
  147  O  9  X    0.016320   0.012976   0.272458   0.035399  -0.002851
  148  O  9  Y   -0.091222   0.001554   0.069449   0.243404   0.037432
  149  O  9  Z   -0.000641   0.092039  -0.009784  -0.022646   0.331133
  150  O  9  S    0.017575   0.008856   0.218859   0.009253  -0.006783
  151  O  9  X    0.017035   0.008979   0.175733   0.023241  -0.000404
  152  O  9  Y   -0.066323   0.001412   0.057447   0.199624   0.030155
  153  O  9  Z   -0.000800   0.070476  -0.006921  -0.018163   0.268693
  154  O  9  S    0.023214   0.003126   0.058978   0.000711  -0.005004
  155  O  9  X   -0.004053  -0.000053   0.006305   0.002947  -0.000173
  156  O  9  Y    0.004228  -0.000047  -0.004052   0.007224   0.001291
  157  O  9  Z    0.000187  -0.001508  -0.000279  -0.001025   0.014992
  158  O  9 XX    0.000063  -0.000346  -0.006901  -0.001266   0.000039
  159  O  9 YY    0.000369   0.000337   0.007456   0.000935  -0.000128
  160  O  9 ZZ    0.000926   0.000356   0.006458   0.000148  -0.000006
  161  O  9 XY    0.002890   0.000016  -0.000632  -0.004969  -0.000812
  162  O  9 XZ    0.000020  -0.002654   0.000385   0.000518  -0.007296
  163  O  9 YZ   -0.000049   0.000514  -0.000038   0.000036   0.000624
  164  O  9 XX    0.001874  -0.000467  -0.004815  -0.003261  -0.001072
  165  O  9 YY   -0.000074   0.000784   0.016789   0.004462   0.000436
  166  O  9 ZZ    0.002888   0.000936   0.013054  -0.000963   0.000305
  167  O  9 XY    0.007859  -0.000136  -0.005409  -0.019978  -0.002849
  168  O  9 XZ    0.000214  -0.010541   0.000821   0.002000  -0.030009
  169  O  9 YZ   -0.000154   0.001480  -0.000072  -0.000045   0.005576

                     16         17         18         19         20
                   -0.4339    -0.3801    -0.3751    -0.2213    -0.1755
                     A          A          A          A          A   
    1  C  1  S    0.030373  -0.001462  -0.017143  -0.036164   0.000453
    2  C  1  S    0.048223  -0.002325  -0.027277  -0.058299   0.000755
    3  C  1  X    0.139116  -0.004284  -0.055702  -0.096334   0.002167
    4  C  1  Y    0.049271   0.000908  -0.000743  -0.167014   0.006165
    5  C  1  Z   -0.013569   0.030536  -0.000556   0.008170   0.030135
    6  C  1  S   -0.166381   0.009256   0.108338   0.200585  -0.002585
    7  C  1  X    0.195364  -0.005602  -0.073393  -0.139856   0.003424
    8  C  1  Y    0.071604   0.001105  -0.005331  -0.258629   0.009110
    9  C  1  Z   -0.019598   0.041709  -0.000721   0.012418   0.043036
   10  C  1  S   -0.115751   0.001725   0.028877   0.268928  -0.005670
   11  C  1  X    0.117299  -0.002363  -0.022595  -0.147996   0.003008
   12  C  1  Y    0.034457  -0.002085  -0.036710  -0.255899   0.009169
   13  C  1  Z   -0.011420   0.033455  -0.001154   0.013134   0.072643
   14  C  1  S    0.027937  -0.008917   0.045795   0.257831  -0.000067
   15  C  1  X   -0.015594   0.001575   0.008895  -0.061100   0.002033
   16  C  1  Y    0.023763  -0.002322   0.005507   0.004469   0.001649
   17  C  1  Z   -0.002265   0.008589  -0.001004   0.002567   0.036185
   18  C  1 XX    0.011720  -0.000157  -0.005338   0.000938  -0.000122
   19  C  1 YY   -0.010747   0.000163   0.004640  -0.005974   0.000294
   20  C  1 ZZ   -0.004395   0.000173   0.002649   0.008296  -0.000165
   21  C  1 XY    0.011440   0.000653   0.004969   0.020579  -0.000541
   22  C  1 XZ   -0.001924   0.008460  -0.000398  -0.000670  -0.003423
   23  C  1 YZ    0.000232  -0.004762   0.000244   0.000144   0.001086
   24  C  1 XX   -0.008926   0.002693   0.026703   0.026573   0.000294
   25  C  1 YY   -0.027892   0.001150   0.016613   0.000814  -0.000106
   26  C  1 ZZ   -0.019980   0.001660   0.018786   0.032071  -0.000613
   27  C  1 XY    0.021281   0.001393   0.011302   0.045830  -0.001451
   28  C  1 XZ   -0.002372   0.007892  -0.000170  -0.001728  -0.014070
   29  C  1 YZ    0.000287  -0.009401   0.000642   0.000352  -0.000184
   30  C  2  S   -0.010103   0.001100   0.009212   0.005251  -0.000427
   31  C  2  S   -0.015311   0.001643   0.013879   0.008168  -0.000645
   32  C  2  X    0.117584   0.005668   0.085204  -0.023487  -0.000561
   33  C  2  Y   -0.031711  -0.012227  -0.088270   0.053348  -0.005241
   34  C  2  Z    0.005042   0.116928  -0.013924   0.006253   0.243540
   35  C  2  S    0.040216  -0.005116  -0.037231  -0.025838   0.005845
   36  C  2  X    0.164108   0.006932   0.108710  -0.030769  -0.001199
   37  C  2  Y   -0.042331  -0.017782  -0.125181   0.076751  -0.007925
   38  C  2  Z    0.007644   0.177637  -0.021224   0.009471   0.370580
   39  C  2  S    0.055642  -0.002635  -0.040039  -0.026749  -0.012382
   40  C  2  X    0.101892   0.005985   0.096673  -0.013049  -0.005287
   41  C  2  Y   -0.035942  -0.010381  -0.070202   0.093423  -0.012538
   42  C  2  Z    0.004527   0.132791  -0.015333   0.011820   0.469487
   43  C  2  S    0.015247  -0.001045   0.010011  -0.016723  -0.004031
   44  C  2  X    0.011466   0.000538   0.017207  -0.006707  -0.001579
   45  C  2  Y   -0.004199  -0.000636  -0.001359   0.022622  -0.003995
   46  C  2  Z    0.000760   0.011579  -0.001292   0.002395   0.147999
   47  C  2 XX   -0.002809  -0.000918  -0.010733   0.002522  -0.000131
   48  C  2 YY    0.005491   0.000087   0.006780  -0.002522   0.000564
   49  C  2 ZZ    0.000376   0.000363   0.000198  -0.001190  -0.000185
   50  C  2 XY    0.001025  -0.001553  -0.014086   0.002132  -0.000022
   51  C  2 XZ    0.000225   0.004017  -0.000767   0.000035  -0.003488
   52  C  2 YZ    0.000630   0.009389  -0.001037  -0.000144  -0.007620
   53  C  2 XX   -0.007758  -0.000740  -0.004169   0.004409   0.002131
   54  C  2 YY   -0.001342   0.000400   0.013874  -0.005054   0.003085
   55  C  2 ZZ   -0.001493   0.000456   0.003038  -0.003327   0.001102
   56  C  2 XY    0.005291  -0.002131  -0.018088   0.001594  -0.000468
   57  C  2 XZ    0.000269   0.007108  -0.001119   0.000645  -0.003229
   58  C  2 YZ    0.000584   0.010964  -0.001120  -0.000408  -0.024685
   59  C  3  S    0.005979   0.001502   0.019119   0.020674  -0.001038
   60  C  3  S    0.009266   0.002300   0.029425   0.032125  -0.001617
   61  C  3  X   -0.006165   0.005128   0.072959  -0.064496  -0.000320
   62  C  3  Y    0.064924  -0.000750   0.016441   0.109741  -0.002557
   63  C  3  Z    0.002407  -0.127845   0.008679  -0.000334   0.010881
   64  C  3  S   -0.036923  -0.010490  -0.109568  -0.117464   0.008215
   65  C  3  X   -0.012733   0.008897   0.113456  -0.104856  -0.000354
   66  C  3  Y    0.092589  -0.000709   0.027089   0.160954  -0.003865
   67  C  3  Z    0.003610  -0.169889   0.010857  -0.000761   0.005410
   68  C  3  S    0.041024   0.007126   0.018265  -0.071286  -0.004313
   69  C  3  X   -0.003846   0.005661   0.067777  -0.080976   0.003264
   70  C  3  Y    0.038829  -0.001089   0.008108   0.145022  -0.002540
   71  C  3  Z    0.002719  -0.111143   0.008243  -0.000072   0.007720
   72  C  3  S   -0.050138   0.014403  -0.033860  -0.113456  -0.011190
   73  C  3  X    0.018334   0.000116  -0.018160  -0.010498  -0.002086
   74  C  3  Y    0.012097  -0.003059   0.016487   0.060893   0.002408
   75  C  3  Z    0.000677  -0.007240   0.000737  -0.001645  -0.022264
   76  C  3 XX    0.004371  -0.001460  -0.008388  -0.006533   0.000788
   77  C  3 YY   -0.007663   0.000034   0.003063  -0.000917   0.000121
   78  C  3 ZZ    0.001816   0.000893   0.000101   0.001515  -0.000578
   79  C  3 XY    0.004732  -0.001146  -0.008180   0.007210  -0.000360
   80  C  3 XZ   -0.000488  -0.011038   0.001448   0.000219   0.009219
   81  C  3 YZ    0.000607  -0.010022   0.000971  -0.000176   0.000343
   82  C  3 XX    0.008392  -0.004204  -0.018988  -0.030661   0.003179
   83  C  3 YY   -0.010941  -0.001212  -0.004991   0.003905   0.001241
   84  C  3 ZZ   -0.009173  -0.000764  -0.009485  -0.009238   0.000492
   85  C  3 XY    0.007287  -0.001782  -0.019053   0.019480  -0.002036
   86  C  3 XZ   -0.001907  -0.025041   0.003507   0.000146   0.026033
   87  C  3 YZ    0.001197  -0.002013   0.000241  -0.001785  -0.011590
   88  O  4  S    0.004173  -0.003010  -0.027199   0.008988   0.000155
   89  O  4  S    0.006240  -0.004644  -0.042053   0.014194   0.000239
   90  O  4  X    0.038611  -0.011820  -0.138111   0.011767  -0.001852
   91  O  4  Y   -0.065212   0.015051   0.166582  -0.035760   0.003683
   92  O  4  Z    0.010215   0.188835  -0.018971  -0.003812  -0.174057
   93  O  4  S   -0.014108   0.013497   0.127402  -0.040808  -0.000997
   94  O  4  X    0.057261  -0.017504  -0.203655   0.015468  -0.002667
   95  O  4  Y   -0.096013   0.021838   0.241412  -0.051150   0.005376
   96  O  4  Z    0.015030   0.277491  -0.027911  -0.005523  -0.252836
   97  O  4  S   -0.052552   0.023404   0.184952  -0.090204   0.001575
   98  O  4  X    0.037958  -0.014309  -0.175611   0.022002  -0.002211
   99  O  4  Y   -0.076473   0.018143   0.211338  -0.035826   0.004310
  100  O  4  Z    0.012975   0.237928  -0.024429  -0.005876  -0.272017
  101  O  4  S   -0.012723   0.003353   0.047210  -0.103665   0.016642
  102  O  4  X   -0.006985  -0.002711  -0.030002   0.005284   0.001210
  103  O  4  Y    0.001807   0.003779   0.029980  -0.013447  -0.000367
  104  O  4  Z    0.000744   0.028613  -0.003031  -0.002057  -0.154518
  105  O  4 XX   -0.002039  -0.000031  -0.000954  -0.000299   0.000029
  106  O  4 YY    0.002237   0.000240   0.001742   0.000165   0.000004
  107  O  4 ZZ   -0.001636   0.000591   0.006288  -0.001661  -0.000088
  108  O  4 XY   -0.000268  -0.000060   0.000169   0.001454   0.000108
  109  O  4 XZ    0.000035  -0.000876   0.000164  -0.000066  -0.003189
  110  O  4 YZ   -0.000099  -0.004014   0.000312  -0.000064  -0.002535
  111  O  4 XX   -0.007460  -0.000564  -0.006255   0.000328   0.000098
  112  O  4 YY    0.011204   0.000122   0.000158   0.003216   0.000007
  113  O  4 ZZ   -0.000312   0.000307   0.011234  -0.000834  -0.000282
  114  O  4 XY   -0.005611   0.001132   0.013116   0.007387   0.000248
  115  O  4 XZ    0.000302  -0.003693   0.000668  -0.000390  -0.014769
  116  O  4 YZ   -0.000650  -0.020276   0.001681  -0.000387  -0.008796
  117  H  5  S    0.070793   0.010643   0.111487  -0.031530   0.001342
  118  H  5  S    0.095442   0.014938   0.158131  -0.038372   0.001682
  119  H  5  S    0.014173   0.008422   0.088559   0.005490   0.002786
  120  H  5  X   -0.007026  -0.000490  -0.003449   0.012784  -0.000586
  121  H  5  Y    0.008789   0.000805   0.010694  -0.003218  -0.000231
  122  H  5  Z    0.000298   0.007247  -0.000716   0.000621   0.021578
  123  H  6  S   -0.080833  -0.007243  -0.090581   0.020150  -0.001238
  124  H  6  S   -0.107867  -0.010844  -0.134868   0.037191  -0.003270
  125  H  6  S   -0.039901  -0.004008  -0.047830   0.038538  -0.002077
  126  H  6  X   -0.007880  -0.001013  -0.011920   0.001682  -0.000358
  127  H  6  Y   -0.002162  -0.000717  -0.005246   0.003153  -0.000481
  128  H  6  Z    0.000215   0.007928  -0.001030   0.000594   0.022361
  129  H  7  S    0.017244   0.103535  -0.005912   0.026226  -0.022835
  130  H  7  S    0.025466   0.164856  -0.014640   0.047213  -0.044880
  131  H  7  S    0.006873   0.074420  -0.005951   0.041350  -0.066649
  132  H  7  X   -0.000004  -0.006188   0.003757  -0.004281   0.000112
  133  H  7  Y    0.000934  -0.008858   0.002295   0.005091   0.002111
  134  H  7  Z    0.003046   0.009099  -0.000949   0.001841  -0.002513
  135  H  8  S    0.022280  -0.101266   0.011754   0.026365   0.019718
  136  H  8  S    0.032419  -0.161716   0.013253   0.048846   0.038410
  137  H  8  S    0.008925  -0.077520   0.006883   0.041776   0.060321
  138  H  8  X   -0.000308   0.007453   0.002617  -0.004352  -0.000411
  139  H  8  Y    0.000381   0.009232   0.000751   0.004827  -0.002299
  140  H  8  Z   -0.003188   0.007969  -0.000835  -0.002035  -0.002382
  141  O  9  S    0.008887   0.000047   0.000733   0.006843  -0.000204
  142  O  9  S    0.013814   0.000074   0.001236   0.010932  -0.000331
  143  O  9  X   -0.097806   0.006142   0.047658   0.056631  -0.001873
  144  O  9  Y    0.164349   0.004821   0.016683   0.185520  -0.005365
  145  O  9  Z   -0.018770   0.095573  -0.006665  -0.008631  -0.040140
  146  O  9  S   -0.044144  -0.000597  -0.005552  -0.044414   0.000893
  147  O  9  X   -0.136033   0.009013   0.069034   0.083636  -0.002601
  148  O  9  Y    0.239343   0.007000   0.023585   0.269131  -0.007768
  149  O  9  Z   -0.027775   0.141465  -0.009853  -0.012585  -0.058415
  150  O  9  S   -0.072874  -0.000248  -0.016443  -0.022406   0.001399
  151  O  9  X   -0.092096   0.007385   0.060279   0.070722  -0.002592
  152  O  9  Y    0.189692   0.005883   0.020998   0.272325  -0.008222
  153  O  9  Z   -0.022806   0.120553  -0.008718  -0.012304  -0.058720
  154  O  9  S   -0.062692   0.001753   0.011518   0.014344   0.002590
  155  O  9  X    0.006663   0.000245  -0.001562   0.018365  -0.002022
  156  O  9  Y    0.006766   0.001340   0.012595   0.100874  -0.002809
  157  O  9  Z   -0.001400   0.008461  -0.000378  -0.004917  -0.036400
  158  O  9 XX    0.004189  -0.000294  -0.002244  -0.001898   0.000021
  159  O  9 YY   -0.002442   0.000093   0.000965  -0.000455   0.000026
  160  O  9 ZZ   -0.002973   0.000149   0.000834   0.000534  -0.000015
  161  O  9 XY   -0.005485  -0.000083   0.000086   0.001432  -0.000069
[...]
    5             0.126891   0.000123   0.001269   0.001195   0.000132
    6             0.004280   0.000111   0.063868   0.062463   0.000181
    7             0.027754   0.114420   0.005455   0.047507   0.001570
    8             0.027405   0.115225   0.004643   0.049147   0.001625
    9             0.045856   0.050634   0.442416   0.352251   0.565777

                     16         17         18         19         20

                  1.000000   1.000000   1.000000   1.000000   1.000000

    1             0.259388   0.010881   0.077105   0.529083   0.018846
    2             0.175547   0.186918   0.153219   0.017723   0.760805
    3             0.062485   0.154988   0.042650   0.111944   0.005566
    4             0.045016   0.358255   0.516570   0.014520   0.179546
    5             0.046034   0.000925   0.121568   0.005155   0.006243
    6             0.081776   0.000995   0.067975   0.002998   0.006177
    7             0.006561   0.100562   0.000050   0.011708   0.007420
    8             0.006486   0.099235   0.000187   0.012118   0.007208
    9             0.316707   0.087242   0.020676   0.294750   0.008188

     ATOMIC MULLIKEN POPULATION IN EACH MOLECULAR ORBITAL
         BETA ORBITALS

                      1          2          3          4          5

                  1.000000   1.000000   1.000000   1.000000   1.000000

    1             0.000053  -0.000036   1.002879  -0.000793   0.000003
    2             0.000010   0.000104   0.000264  -0.000088   1.002710
    3            -0.000305  -0.000036   0.000891   1.004308   0.000548
    4             0.000011   0.999925  -0.000201  -0.001464  -0.002062
    5            -0.000000  -0.000015  -0.000011   0.000021  -0.000507
    6            -0.000000   0.000012   0.000001   0.000002  -0.000677
    7             0.000005   0.000020   0.000006  -0.000916  -0.000003
    8             0.000005   0.000020   0.000006  -0.000904  -0.000003
    9             1.000223   0.000006  -0.003834  -0.000166  -0.000010

                      6          7          8          9         10

                  1.000000   1.000000   1.000000   1.000000   1.000000

    1             0.248347   0.022115   0.112262   0.164943   0.148974
    2             0.007597   0.114411   0.115405   0.280250   0.161046
    3             0.020854   0.110459   0.397898   0.162422   0.173576
    4             0.049280   0.693708   0.206784   0.198181   0.023858
    5            -0.000253   0.001934   0.003919   0.067849   0.035934
    6            -0.000136   0.000367   0.017232   0.057496   0.075929
    7             0.000925   0.002226   0.062259   0.008708   0.040862
    8             0.000908   0.002171   0.061752   0.008402   0.041521
    9             0.672479   0.052609   0.022489   0.051749   0.298299

                     11         12         13         14         15

                  1.000000   1.000000   1.000000   1.000000   1.000000

    1             0.040676   0.082425   0.118869   0.112328   0.221714
    2             0.218686   0.015924   0.129019   0.219760   0.012861
    3             0.193651   0.419074   0.081844   0.178781   0.033099
    4             0.294791   0.156043   0.142585   0.107775   0.097716
    5             0.153656   0.000075   0.012381   0.034674   0.000042
    6             0.007504   0.000069   0.076113   0.152555   0.000067
    7             0.033960   0.133245   0.000544   0.047626   0.010533
    8             0.033299   0.134164   0.000418   0.049206   0.009718
    9             0.023777   0.058982   0.438227   0.097294   0.614250

                     16         17         18

                  1.000000   1.000000   1.000000

    1             0.276471   0.104428   0.003083
    2             0.050313   0.114114   0.142282
    3             0.017267   0.037810   0.104733
    4             0.016082   0.524763   0.548525
    5             0.035347   0.121162   0.000749
    6             0.016146   0.064576   0.000854
    7             0.001731   0.000045   0.081194
    8             0.001819   0.000149   0.080211
    9             0.584824   0.032953   0.038369

     ATOMIC SPIN POPULATION (ALPHA MINUS BETA)
       ATOM         MULL.POP.                    LOW.POP.
    1 C            -0.548011                    -0.490663
    2 C             0.958250                     0.758776
    3 C            -0.147593                    -0.150330
    4 O             0.105635                     0.162519
    5 H            -0.050501                    -0.003781
    6 H            -0.053380                    -0.001168
    7 H             0.001639                    -0.005380
    8 H            -0.001404                    -0.006497
    9 O            -0.264634                    -0.263475


          ********* ALL ELECTRONS ********

               ----- POPULATIONS IN EACH AO -----
                             MULLIKEN      LOWDIN
              1  C  1  S      1.10792     1.04543
              2  C  1  S      0.86624     0.90418
              3  C  1  X      0.26203     0.25748
              4  C  1  Y      0.20307     0.19603
              5  C  1  Z      0.11913     0.11425
              6  C  1  S      0.87558     0.31958
              7  C  1  X      0.47409     0.48166
              8  C  1  Y      0.46077     0.43440
              9  C  1  Z      0.28229     0.26071
             10  C  1  S      0.47236     0.19622
             11  C  1  X      0.11064     0.19285
             12  C  1  Y      0.22877     0.27631
             13  C  1  Z      0.16854     0.18095
             14  C  1  S      0.15272     0.08205
             15  C  1  X      0.02154     0.04447
             16  C  1  Y      0.00806     0.03696
             17  C  1  Z      0.01050     0.02980
             18  C  1 XX      0.02735     0.16619
             19  C  1 YY      0.00424     0.12392
             20  C  1 ZZ     -0.00252     0.11736
             21  C  1 XY      0.00794     0.01141
             22  C  1 XZ      0.00675     0.00795
             23  C  1 YZ      0.00060     0.00047
             24  C  1 XX      0.02725     0.16425
             25  C  1 YY      0.03725     0.11008
             26  C  1 ZZ      0.02652     0.07903
             27  C  1 XY      0.03638     0.15301
             28  C  1 XZ      0.02413     0.08925
             29  C  1 YZ      0.00962     0.03060
             30  C  2  S      1.10736     1.04374
             31  C  2  S      0.86678     0.90547
             32  C  2  X      0.22915     0.21401
             33  C  2  Y      0.19752     0.18454
             34  C  2  Z      0.21113     0.21270
             35  C  2  S      0.74655     0.29273
             36  C  2  X      0.48033     0.46568
             37  C  2  Y      0.42125     0.42262
             38  C  2  Z      0.45749     0.43678
             39  C  2  S      0.45523     0.18923
             40  C  2  X      0.21674     0.27588
             41  C  2  Y      0.14341     0.22245
             42  C  2  Z      0.42540     0.34976
             43  C  2  S      0.01225     0.05823
             44  C  2  X      0.01089     0.05976
             45  C  2  Y      0.00196     0.02686
             46  C  2  Z      0.06353     0.06844
             47  C  2 XX      0.01328     0.12544
             48  C  2 YY      0.01517     0.12694
             49  C  2 ZZ     -0.00727     0.09558
             50  C  2 XY      0.00718     0.00969
             51  C  2 XZ      0.00073     0.00081
             52  C  2 YZ      0.00279     0.00293
             53  C  2 XX      0.01993     0.15146
             54  C  2 YY      0.02122     0.16310
             55  C  2 ZZ      0.00416     0.05539
             56  C  2 XY      0.01538     0.07381
             57  C  2 XZ      0.00436     0.01683
             58  C  2 YZ      0.01750     0.07105
             59  C  3  S      1.10752     1.04384
             60  C  3  S      0.86635     0.90499
             61  C  3  X      0.17561     0.16835
             62  C  3  Y      0.20626     0.19847
             63  C  3  Z      0.24228     0.22904
             64  C  3  S      0.78960     0.28283
             65  C  3  X      0.41570     0.39707
             66  C  3  Y      0.48176     0.44135
             67  C  3  Z      0.53375     0.48382
             68  C  3  S      0.27723     0.16579
             69  C  3  X      0.12992     0.17430
             70  C  3  Y      0.23363     0.26944
             71  C  3  Z      0.28062     0.30415
             72  C  3  S     -0.00539     0.06705
             73  C  3  X      0.01004     0.04135
             74  C  3  Y     -0.01261     0.04218
             75  C  3  Z      0.01638     0.03783
             76  C  3 XX      0.01211     0.11959
             77  C  3 YY      0.00423     0.10650
             78  C  3 ZZ      0.00672     0.11229
             79  C  3 XY      0.00421     0.00542
             80  C  3 XZ      0.00404     0.00484
             81  C  3 YZ      0.00268     0.00312
             82  C  3 XX      0.02445     0.13764
             83  C  3 YY      0.03111     0.10975
             84  C  3 ZZ      0.01846     0.09769
             85  C  3 XY      0.03359     0.10493
             86  C  3 XZ      0.03908     0.11592
             87  C  3 YZ      0.00458     0.04555
             88  O  4  S      1.08635     1.03006
             89  O  4  S      0.89714     0.92602
             90  O  4  X      0.27900     0.27855
             91  O  4  Y      0.32350     0.32443
             92  O  4  Z      0.37684     0.38186
             93  O  4  S      1.02014     0.39007
             94  O  4  X      0.62427     0.58784
             95  O  4  Y      0.69348     0.65746
             96  O  4  Z      0.76325     0.72503
             97  O  4  S      0.61807     0.24539
             98  O  4  X      0.38480     0.37073
             99  O  4  Y      0.44650     0.41443
            100  O  4  Z      0.57987     0.45271
            101  O  4  S     -0.00774     0.08464
            102  O  4  X     -0.00902     0.09759
            103  O  4  Y     -0.01409     0.09548
            104  O  4  Z     -0.01495     0.08873
            105  O  4 XX      0.00869     0.15238
            106  O  4 YY      0.00761     0.14991
            107  O  4 ZZ      0.00345     0.14573
            108  O  4 XY      0.00050     0.00045
            109  O  4 XZ      0.00022     0.00019
            110  O  4 YZ      0.00034     0.00033
            111  O  4 XX      0.05498     0.15105
            112  O  4 YY      0.04179     0.13984
            113  O  4 ZZ      0.02178     0.11192
            114  O  4 XY      0.00729     0.02376
            115  O  4 XZ      0.00646     0.01735
            116  O  4 YZ      0.00812     0.01829
            117  H  5  S      0.27445     0.25605
            118  H  5  S      0.48768     0.36494
            119  H  5  S      0.07793     0.14063
            120  H  5  X      0.00884     0.02116
            121  H  5  Y      0.01339     0.02665
            122  H  5  Z      0.00808     0.02325
            123  H  6  S      0.27765     0.26225
            124  H  6  S      0.50184     0.37818
            125  H  6  S      0.07957     0.13879
            126  H  6  X      0.01742     0.03295
            127  H  6  Y      0.00218     0.00952
            128  H  6  Z      0.00836     0.02274
            129  H  7  S      0.27563     0.26191
            130  H  7  S      0.48792     0.36842
            131  H  7  S      0.06295     0.12256
            132  H  7  X      0.00328     0.01003
            133  H  7  Y      0.00795     0.01896
            134  H  7  Z      0.01245     0.02692
            135  H  8  S      0.27510     0.26122
            136  H  8  S      0.48772     0.36828
            137  H  8  S      0.06271     0.12278
            138  H  8  X      0.00333     0.01008
            139  H  8  Y      0.00820     0.01930
            140  H  8  Z      0.01218     0.02639
            141  O  9  S      1.08644     1.03110
            142  O  9  S      0.89724     0.92633
            143  O  9  X      0.33379     0.33118
            144  O  9  Y      0.33035     0.33307
            145  O  9  Z      0.29563     0.29646
            146  O  9  S      1.04433     0.41248
            147  O  9  X      0.68361     0.66776
            148  O  9  Y      0.67687     0.63715
            149  O  9  Z      0.62493     0.58032
            150  O  9  S      0.73024     0.27696
            151  O  9  X      0.31688     0.38888
            152  O  9  Y      0.51142     0.41322
            153  O  9  Z      0.49210     0.40821
            154  O  9  S      0.03734     0.10651
            155  O  9  X      0.00184     0.09066
            156  O  9  Y      0.00766     0.07866
            157  O  9  Z      0.01367     0.07996
            158  O  9 XX      0.01284     0.16534
            159  O  9 YY      0.00557     0.15736
            160  O  9 ZZ      0.00577     0.15778
            161  O  9 XY      0.00085     0.00077
            162  O  9 XZ      0.00080     0.00082
            163  O  9 YZ      0.00000     0.00000
            164  O  9 XX      0.03432     0.15914
            165  O  9 YY      0.01972     0.12890
            166  O  9 ZZ      0.02064     0.12928
            167  O  9 XY      0.01153     0.02846
            168  O  9 XZ      0.01310     0.01312
            169  O  9 YZ      0.00005     0.00004

          ----- MULLIKEN ATOMIC OVERLAP POPULATIONS -----
          (OFF-DIAGONAL ELEMENTS NEED TO BE MULTIPLIED BY 2)

             1           2           3           4           5

    1    5.8179028
    2   -0.0245631   5.2944015
    3   -0.0794387  -0.0685735   5.0036925
    4   -0.0655033   0.1281468   0.3183116   8.0124376
    5    0.0187056   0.4081953  -0.0182279  -0.0252750   0.5213008
    6    0.0096816   0.4136556   0.0022885  -0.0443198  -0.0330314
    7   -0.0002122   0.0045580   0.3968146  -0.0595874  -0.0000818
    8   -0.0014220   0.0041339   0.3982687  -0.0587135  -0.0000727
    9    0.3546167   0.0014599  -0.0192517   0.0031453  -0.0011484

             6           7           8           9

    6    0.5389482
    7   -0.0000759   0.5489925
    8   -0.0000805  -0.0364082   0.5474813
    9   -0.0000546  -0.0038256  -0.0039454   7.8785041

          TOTAL MULLIKEN AND LOWDIN ATOMIC POPULATIONS
       ATOM         MULL.POP.    CHARGE          LOW.POP.     CHARGE
    1 C             6.029767   -0.029767         6.106831   -0.106831
    2 C             6.161414   -0.161414         6.321918   -0.321918
    3 C             5.933884    0.066116         6.215093   -0.215093
    4 O             8.208642   -0.208642         8.062253   -0.062253
    5 H             0.870365    0.129635         0.832680    0.167320
    6 H             0.887012    0.112988         0.844442    0.155558
    7 H             0.850174    0.149826         0.808788    0.191212
    8 H             0.849242    0.150758         0.808059    0.191941
    9 O             8.209500   -0.209500         7.999934    0.000066

          -------------------------------
          BOND ORDER AND VALENCE ANALYSIS     BOND ORDER THRESHOLD=0.050
          -------------------------------

                   BOND                       BOND                       BOND
  ATOM PAIR DIST  ORDER      ATOM PAIR DIST  ORDER      ATOM PAIR DIST  ORDER
    1   3  1.558  0.773        1   9  1.181  2.081        2   4  1.342  1.029
    2   5  1.080  0.952        2   6  1.079  0.979        3   4  1.411  0.991
    3   7  1.095  0.945        3   8  1.096  0.946

                       TOTAL       BONDED        FREE
      ATOM            VALENCE     VALENCE     VALENCE
    1 C                 3.302       2.980       0.322
    2 C                 3.759       3.014       0.745
    3 C                 3.702       3.695       0.008
    4 O                 2.016       1.988       0.028
    5 H                 0.986       0.982       0.004
    6 H                 0.977       0.972       0.005
    7 H                 0.953       0.948       0.004
    8 H                 0.952       0.947       0.005
    9 O                 2.253       2.147       0.106

          -----------------------------------------
          ATOMIC SPIN DENSITY AT THE NUCLEUS (A.U.)
          -----------------------------------------
                            SPIN DENS    ALPHA DENS     BETA DENS
    1  C            6.0    -0.2959101      60.03694      60.33285
    2  C            6.0     0.0603473      59.93302      59.87267
    3  C            6.0    -0.1225776      59.85987      59.98245
    4  O            8.0     0.0133410     147.75553     147.74219
    5  H            1.0    -0.0159306       0.20782       0.22375
    6  H            1.0    -0.0147595       0.21107       0.22583
    7  H            1.0     0.0007461       0.21790       0.21716
    8  H            1.0    -0.0001266       0.21698       0.21710
    9  O            8.0    -0.0557179     148.05707     148.11278

          ---------------------
          ELECTROSTATIC MOMENTS
          ---------------------

 POINT   1           X           Y           Z (BOHR)    CHARGE
                 1.054753   -0.307657   -0.021172       -0.00 (A.U.)
         DX          DY          DZ         /D/  (DEBYE)
    -0.393036    1.185703    0.008140    1.249174
 ...... END OF PROPERTY EVALUATION ......
 CPU     0: STEP CPU TIME=     0.08 TOTAL CPU TIME=       3118.9 (     52.0 MIN)
 TOTAL WALL CLOCK TIME=       3184.2 SECONDS, CPU UTILIZATION IS    97.95%
  $VIB   
          IVIB=   0 IATOM=   0 ICOORD=   0 E=        0.0417363915
 -7.514562053E-04 4.832928924E-05 2.053591849E-04 4.530628471E-04 2.171567349E-05
 -3.359332073E-04-2.667919894E-03-9.801409292E-04-4.574911662E-04 1.416247200E-03
  9.471343783E-04 1.711379360E-04 5.461379143E-04-1.686185507E-04-2.552686891E-04
 -6.581024802E-04-1.390009940E-05 2.307152000E-04 1.160601377E-04-2.638712914E-04
 -6.240808415E-05 3.845795105E-04 6.426458859E-04 5.821366493E-04 1.161390970E-03
 -2.332943562E-04-7.824782360E-05
 -3.930356780E-01 1.185702933E+00 8.140365382E-03
 ......END OF GEOMETRY SEARCH......
 CPU     0: STEP CPU TIME=     0.00 TOTAL CPU TIME=       3118.9 (     52.0 MIN)
 TOTAL WALL CLOCK TIME=       3184.2 SECONDS, CPU UTILIZATION IS    97.95%
              4694898  WORDS OF DYNAMIC MEMORY USED
 EXECUTION OF GAMESS TERMINATED NORMALLY Fri Oct  7 16:07:24 2022
 DDI: 263640 bytes (0.3 MB / 0 MWords) used by master data server.
Note: The following floating-point exceptions are signalling: IEEE_UNDERFLOW_FLAG IEEE_DENORMAL
Note: The following floating-point exceptions are signalling: IEEE_UNDERFLOW_FLAG IEEE_DENORMAL
Note: The following floating-point exceptions are signalling: IEEE_UNDERFLOW_FLAG IEEE_DENORMAL

 ----------------------------------------
 CPU timing information for all processes
 ========================================
 0: 3092.552 + 26.378 = 3118.930
 1: 3090.229 + 25.325 = 3115.554
 2: 3082.283 + 25.309 = 3107.593
 3: 3091.544 + 24.634 = 3116.179
 4: 7.314 + 73.576 = 80.891
 5: 0.02 + 0.02 = 0.05
 6: 0.02 + 0.03 = 0.05
 7: 0.02 + 0.03 = 0.05
 ----------------------------------------
Note: The following floating-point exceptions are signalling: IEEE_UNDERFLOW_FLAG IEEE_DENORMAL
 ddikick.x: exited gracefully.
unset echo
----- accounting info -----
Files used on the master node Samuels-MBP.attlocal.net were:
-rw-r--r-- 1 Sammy staff     825 Oct  7 15:14 /Users/Sammy/gamess/scratch/oxetanone_conicl4.F05
-rw-r--r-- 1 Sammy staff 5137040 Oct  7 16:07 /Users/Sammy/gamess/scratch/oxetanone_conicl4.F10
-rw-r--r-- 1 Sammy staff 2537768 Oct  7 16:07 /Users/Sammy/gamess/scratch/oxetanone_conicl4.F22
-rw-r--r-- 1 Sammy staff 2537768 Oct  7 16:07 /Users/Sammy/gamess/scratch/oxetanone_conicl4.F22.001
-rw-r--r-- 1 Sammy staff 2537768 Oct  7 16:07 /Users/Sammy/gamess/scratch/oxetanone_conicl4.F22.002
-rw-r--r-- 1 Sammy staff 2537768 Oct  7 16:07 /Users/Sammy/gamess/scratch/oxetanone_conicl4.F22.003
ls: No match.
ls: No match.
ls: No match.
Fri Oct  7 16:07:27 CDT 2022
3099.974u 100.072s 53:07.62 100.3%	0+0k 0+0io 486pf+0w
