----- GAMESS execution script 'rungms' -----
This job is running on host Samuels-MBP.attlocal.net
under operating system Darwin at Sat Oct 8 16:37:53 CDT 2022
Available scratch disk space (Kbyte units) at beginning of the job is
Filesystem     1K-blocks      Used Available Use% Mounted on
/dev/disk1s5s1 244912536 150616064  74904160  67% /
GAMESS temporary binary files will be written to /Users/Sammy/gamess/scratch
GAMESS supplementary output files will be written to /Users/Sammy/gamess/
Copying input file input_files/oxetanone/oxetanone_dft_sadpoint.inp to your run's scratch directory...
cp input_files/oxetanone/oxetanone_dft_sadpoint.inp /Users/Sammy/gamess/scratch/oxetanone_dft_sadpoint.F05
unset echo
 
Assuming a single but multicore node.
 
/Users/Sammy/gamess//ddikick.x /Users/Sammy/gamess//gamess.30Jun2020R1.x oxetanone_dft_sadpoint -ddi 4 4 localhost localhost localhost localhost -scr /Users/Sammy/gamess/scratch

 Distributed Data Interface kickoff program.
 Initiating 4 compute processes on 4 nodes to run the following command:
 /Users/Sammy/gamess//gamess.30Jun2020R1.x oxetanone_dft_sadpoint 

          *******************************************************
          *                                                     *
          *          GAMESS VERSION = 30 JUN 2020 (R1)          *
          *                                                     *
          *              doi.org/10.1063/5.0005188              *
          *                                                     *
          **************** 64 BIT APPLE VERSION *****************

  GAMESS HAS BEEN MADE POSSIBLE WITH IMPORTANT CONTRIBUTIONS FROM
  THE FOLLOWING INDIVIDUALS (IN ALPHABETICAL ORDER):

     IVANA ADAMOVIC, CHRISTINE AIKENS, TOMOKO AKAMA,
     YURI ALEXEEV, YURIKO AOKI, POOJA ARORA, TOSHIO ASADA,
     ANDREY ASADCHEV, KIM K. BALDRIDGE, PRADIPTA BANDYOPADHYAY,
     MARIA BARYSZ, ROB BELL, JONATHAN BENTZ, COLLEEN BERTONI,
     JERRY A. BOATZ, BRETT BODE, KURT BRORSEN, KURT R. BRORSEN,
     LAIMUTIS BYTAUTAS, CALEB CARLIN, LAURA CARRINGTON,
     GALINA CHABAN, BENOIT CHAMPAGNE, WEI CHEN, MAHITO CHIBA,
     DAN CHIPMAN, CHEOL HO CHOI, TANNER CULPITT, PAUL DAY,
     ALBERT DEFUSCO, NUWAN DESILVA, J. EMILIANO DEUSTUA,
     TIM DUDLEY, MICHEL DUPUIS, STEVEN T. ELBERT,
     DMITRI FEDOROV, ALEX FINDLATER, GRAHAM FLETCHER,
     MARK FREITAG, CHRISTIAN FRIEDL, DAVID GARMER,
     IGOR S. GERASIMOV, KURT GLAESEMANN, MARK S. GORDON,
     JEFFREY GOUR, FENG LONG GU, EMILIE B. GUIDEZ,
     ANASTASIA GUNINA, SHARON HAMMES-SCHIFFER, MASATAKE HARUTA,
     KIMIHIKO HIRAO, YASUHIRO IKABATA, TZVETELIN IORDANOV,
     STEPHAN IRLE, KAZUYA ISHIMURA, JOE IVANIC, FRANK JENSEN,
     JAN H. JENSEN, VISVALDAS KAIRYS, MUNEAKI KAMIYA,
     MICHIO KATOUDA, NAOAKI KAWAKAMI, DAN KEMP, BERNARD KIRTMAN,
     KAZUO KITAURA, MARIUSZ KLOBUKOWSKI, MASATO KOBAYASHI,
     PRAKASHAN KORAMBATH, JACEK KORCHOWIEC, SHIRO KOSEKI,
     KAROL KOWALSKI, JIMMY KROMANN, STANISLAW KUCHARSKI,
     HENRY KURTZ, SAROM SOK LEANG, HUI LI, SHUHUA LI, WEI LI,
     JESSE LUTZ, ALEKSANDR O. LYKHIN, MARCIN MAKOWSKI,
     JOANI MATO, NIKITA MATSUNAGA, BENEDETTA MENNUCCI,
     GRANT MERRILL, NORIYUKI MINEZAWA, VLADIMIR MIRONOV,
     EISAKU MIYOSHI, JOHN A. MONTGOMERY JR., HIROTOSHI MORI,
     JONATHAN MULLIN, MONIKA MUSIAL, SHIGERU NAGASE,
     TAKESHI NAGATA, HIROMI NAKAI, TAKAHITO NAKAJIMA,
     YUYA NAKAJIMA, HARUYUKI NAKANO, HIROYA NAKATA, SEAN NEDD,
     HEATHER NETZLOFF, KIET A. NGUYEN, YOSHIO NISHIMOTO,
     BOSILJKA NJEGIC, RYAN OLSON, MIKE PAK, ROBERTO PEVERATI,
     BUU PHAM, PIOTR PIECUCH, ANNA POMOGAEVA, DAVID POOLE,
     SPENCER PRUITT, OLIVIER QUINET, LUKE ROSKOP,
     KLAUS RUEDENBERG, ANDREW SAND, TOSAPORN SATTASATHUCHANA,
     NOZOMI SAWADA, MICHAEL W. SCHMIDT, PATRICK E. SCHNEIDER,
     JUNJI SEINO, PRACHI SHARMA, JUN SHEN, JIM SHOEMAKER,
     YINAN SHU, DEJUN SI, JONATHAN SKONE, LYUDMILA SLIPCHENKO,
     TONY SMITH, JIE SONG, MARK SPACKMAN, CASPER STEINMANN,
     WALT STEVENS, PEIFENG SU, SHUJUN SU, CHET SWALINA,
     TETSUYA TAKETSUGU, ZHEN TAO, NANDUN THELLAMUREGE
     SEIKEN TOKURA, JACOPO TOMASI, TSUGUKI TOUMA, TAKAO TSUNEDA,
     HIROAKI UMEDA, JORGE LUIS GALVEZ VALLEJO, YALI WANG,
     SIMON WEBB, AARON WEST, THERESA L. WINDUS, MARTA WLOCH,
     PENG XU, KIYOSHI YAGI, SUSUMU YANAGISAWA, YANG YANG,
     SOOHAENG YOO, TAKESHI YOSHIKAWA, FEDERICO ZAHARIEV,
     TOBY ZENG

  WHO ARE SUPPORTED BY THEIR INSTITUTION/UNIVERSITY/COMPANY/GROUP
  (IN ALPHABETICAL ORDER):

     EP ANALYTICS, FACULTES UNIVERSITAIRES NOTRE-DAME DE LA PAIX,
     INSTITUTE FOR MOLECULAR SCIENCE, IOWA STATE UNIVERSITY,
     JACKSON STATE UNIVERSITY, JOHANNES KEPLER UNIVERSITY LINZ,
     KYUSHU UNIVERSITY, MICHIGAN STATE UNIVERSITY,
     MIE UNIVERSITY, MOSCOW STATE UNIVERSITY,
     N. COPERNICUS UNIVERSITY, NAGOYA UNIVERSITY,
     NANJING UNIVERSITY, NAT. INST. OF ADVANCED INDUSTRIAL
     SCIENCE AND TECHNOLOGY, NATIONAL INST. OF STANDARDS AND
     TECHNOLOGY, NESMEYANOV INSTITUTE OF ORGANOELEMENT COMPOUNDS
     OF RUSSIAN ACADEMY OF SCIENCES, OSAKA PREFECTURE UNIVERSITY,
     PENNSYLVANIA STATE UNIVERSITY, TOKYO INSTITUTE OF TECHNOLOGY,
     UNIVERSITY OF AARHUS, UNIVERSITY OF ALBERTA,
     UNIVERSITY OF CALIFORNIA AT SANTA BARBARA,
     UNIVERSITY OF COPENHAGEN, UNIVERSITY OF IOWA,
     UNIVERSITY OF MEMPHIS, UNIVERSITY OF MINNESOTA,
     UNIVERSITY OF NEBRASKA, UNIVERSITY OF NEW ENGLAND,
     UNIVERSITY OF NOTRE DAME, UNIVERSITY OF PISA,
     UNIVERSITY OF SILESIA, UNIVERSITY OF TOKYO,
     UNIVERSITY OF ZURICH, WASEDA UNIVERSITY, YALE UNIVERSITY

  GAMESS SOFTWARE MANAGEMENT TEAM FOR THIS RELEASE:

     MARK S. GORDON (TEAM LEAD),
     BRETT BODE (SENIOR ADVISOR),
     GIUSEPPE BARCA,
     COLLEEN BERTONI,
     KRISTOPHER KEIPERT (ADVISOR),
     SAROM S. LEANG (DEVELOPMENT LEAD),
     BUU PHAM,
     JORGE LUIS GALVEZ VALLEJO (WEBSITE ADMINISTRATOR),
     PENG XU


 PARALLEL VERSION RUNNING ON        4 PROCESSORS IN        4 NODES.

 EXECUTION OF GAMESS BEGUN Sat Oct  8 16:37:53 2022

            ECHO OF THE FIRST FEW INPUT CARDS -
 INPUT CARD>!   File created by MacMolPlt 7.7                                               
 INPUT CARD> $CONTRL SCFTYP=RHF RUNTYP=SADPOINT EXETYP=RUN DFTTYP=B3LYP $END                
 INPUT CARD> $SYSTEM TIMLIM=525600 MEMORY=20000000 $END                                     
 INPUT CARD> $BASIS GBASIS=N311 NGAUSS=6 NDFUNC=2 NPFUNC=1 DIFFSP=.TRUE. $END               
 INPUT CARD> $GUESS GUESS=MOREAD NORB=19 $END                                               
 INPUT CARD> $SCF DIRSCF=.TRUE. $END                                                        
 INPUT CARD> $STATPT OPTTOL=0.00005 NSTEP=300 IFOLOW=1 HESS=READ HSSEND=.TRUE. $END         
 INPUT CARD> $FORCE METHOD=SEMINUM VIBSIZ=0.010000 VIBANL=.TRUE. $END                       
 INPUT CARD> $DATA                                                                          
 INPUT CARD>Title                                                                           
 INPUT CARD>C1                                                                              
 INPUT CARD>C     6.0     1.49908    -0.83774    -0.48792                                   
 INPUT CARD>C     6.0    -0.81538    -0.82641     0.01269                                   
 INPUT CARD>C     6.0     0.37531     1.13622     0.23787                                   
 INPUT CARD>O     8.0    -0.39069     0.18831     0.74184                                   
 INPUT CARD>H     1.0    -1.34434    -1.57446     0.58453                                   
 INPUT CARD>H     1.0    -1.04866    -0.65731    -1.03001                                   
 INPUT CARD>H     1.0     0.22995     1.43266    -0.79213                                   
 INPUT CARD>H     1.0     0.72939     1.84120     0.97523                                   
 INPUT CARD>O     8.0     2.44695    -1.45280    -0.34819                                   
 INPUT CARD> $END                                                                           
 INPUT CARD> $HESS                                                                          
 INPUT CARD>ENERGY IS     -266.9861183746 E(NUC) IS      154.8799712421                     
 INPUT CARD> 1  1 7.87052355E-01-4.70609574E-01 1.18002335E-01 2.51261407E-02 6.24862527E-03
 INPUT CARD> 1  2-9.32914125E-03 2.36697355E-02-3.01615126E-02-3.17695585E-02-4.97494696E-02
 INPUT CARD> 1  3 5.80886445E-03 3.24419855E-02 3.07956760E-03-2.73099225E-03 1.31575516E-04
 INPUT CARD> 1  4-8.26195700E-03 2.12180977E-04 2.48335447E-03-7.06667988E-03 7.20004826E-03
 INPUT CARD> 1  5 2.78780810E-03 5.74167240E-03-3.27252516E-03-3.80134914E-04-7.79557286E-01
 INPUT CARD> 1  6 4.87328324E-01-1.14293704E-01                                             
 INPUT CARD> 2  1-4.70609574E-01 3.72367396E-01-7.36029030E-02-3.13005079E-02 6.04150288E-03
 INPUT CARD> 2  2 2.89403102E-02 6.53774022E-03 7.98524816E-03-1.77256838E-03 4.44119518E-03
 INPUT CARD> 2  3-3.56451019E-02-2.17379219E-02-4.93982672E-03 2.63557662E-03 4.82110469E-04
 INPUT CARD> 2  4 7.13542223E-03-2.82575681E-03-1.63969941E-03 1.29905285E-03-3.86065041E-03
 INPUT CARD> 2  5-2.40380585E-03-1.53629045E-03 2.43208288E-04-6.22999289E-04 4.88953104E-01
 INPUT CARD> 2  6-3.46953701E-01 7.23077400E-02                                             
 INPUT CARD> 3  1 1.18002335E-01-7.36029030E-02 5.11344694E-02-2.45165036E-02-5.75916520E-05
 INPUT CARD> 3  2-7.33090203E-03-7.76044179E-03 2.15131550E-02-7.84402546E-03 4.03368818E-02
 INPUT CARD> 3  3-2.63136396E-02-1.63131053E-02 1.13054529E-03-3.06272686E-04 8.47895895E-04
 INPUT CARD> 3  4-1.07193465E-03 8.58406465E-04 2.86290148E-03-1.90254990E-03 1.77089025E-04
 INPUT CARD> 3  5 2.59781493E-03 1.00919644E-03-1.29128279E-03 6.48804344E-04-1.25222607E-01
 INPUT CARD> 3  6 7.90269146E-02-2.65939919E-02                                             
 INPUT CARD> 4  1 2.51261407E-02-3.13005079E-02-2.45165036E-02 2.22729991E-01 2.58892986E-01
 INPUT CARD> 4  2 5.23986203E-02-3.25467388E-02-3.10080313E-02 1.12312565E-03-8.22784995E-02
 INPUT CARD> 4  3-1.02350162E-01-6.07088080E-02-9.54060215E-02-1.01560468E-01 8.09348666E-02
 INPUT CARD> 4  4-3.78218207E-02-1.98111140E-03-5.51118931E-02 3.62796783E-03 5.90523349E-04
 INPUT CARD> 4  5-1.29681608E-03 2.55466003E-03-3.50275459E-03 2.05257171E-03-5.98509709E-03
 INPUT CARD> 4  6 1.22177687E-02 5.12609838E-03                                             
 INPUT CARD> 5  1 6.24862527E-03 6.04150288E-03-5.75916520E-05 2.58892986E-01 5.06599847E-01
 INPUT CARD> 5  2-7.86484329E-02-6.34564051E-02-8.03182037E-02-1.52126222E-02-7.84853769E-02
 INPUT CARD> 5  3-1.97587126E-01-8.28328289E-02-1.21905424E-01-1.69214319E-01 1.23539354E-01
   20000000 WORDS OF MEMORY AVAILABLE

     BASIS OPTIONS
     -------------
     GBASIS=N311         IGAUSS=       6      POLAR=POPN311 
     NDFUNC=       2     NFFUNC=       0     DIFFSP=       T
     NPFUNC=       1      DIFFS=       F     BASNAM=        
     SPLIT2=     2.00000000     0.50000000


     RUN TITLE
     ---------
 Title                                                                           

 THE POINT GROUP OF THE MOLECULE IS C1      
 THE ORDER OF THE PRINCIPAL AXIS IS     0

 ATOM      ATOMIC                      COORDINATES (BOHR)
           CHARGE         X                   Y                   Z
 C           6.0     2.8328504337       -1.5830990490       -0.9220351039
 C           6.0    -1.5408447759       -1.5616884535        0.0239806228
 C           6.0     0.7092330605        2.1471444618        0.4495091207
 O           8.0    -0.7382970461        0.3558543007        1.4018743267
 H           1.0    -2.5404342343       -2.9752979786        1.1046015316
 H           1.0    -1.9816800543       -1.2421357890       -1.9464366646
 H           1.0     0.4345424909        2.7073348336       -1.4969086467
 H           1.0     1.3783472382        3.4793634886        1.8429174750
 O           8.0     4.6240650057       -2.7453939150       -0.6579836917

          INTERNUCLEAR DISTANCES (ANGS.)
          ------------------------------

                1 C          2 C          3 C          4 O          5 H     

   1 C       0.0000000    2.3680084 *  2.3845646 *  2.4771594 *  3.1269702  
   2 C       2.3680084 *  0.0000000    2.3065917 *  1.3197265 *  1.0799900 *
   3 C       2.3845646 *  2.3065917 *  0.0000000    1.3188158 *  3.2288009  
   4 O       2.4771594 *  1.3197265 *  1.3188158 *  0.0000000    2.0103614 *
   5 H       3.1269702    1.0799900 *  3.2288009    2.0103614 *  0.0000000  
   6 H       2.6110143 *  1.0817752 *  2.6176249 *  2.0706159 *  1.8802474 *
   7 H       2.6187690 *  2.6160748 *  1.0816220 *  2.0704263 *  3.6628339  
   8 H       3.1480073    3.2293870    1.0798468 *  2.0102476 *  4.0149391  
   9 O       1.1385433 *  3.3414661    3.3672219    3.4545055    3.9062319  

                6 H          7 H          8 H          9 O     

   1 C       2.6110143 *  2.6187690 *  3.1480073    1.1385433 *
   2 C       1.0817752 *  2.6160748 *  3.2293870    3.3414661  
   3 C       2.6176249 *  1.0816220 *  1.0798468 *  3.3672219  
   4 O       2.0706159 *  2.0704263 *  2.0102476 *  3.4545055  
   5 H       1.8802474 *  3.6628339    4.0149391    3.9062319  
   6 H       0.0000000    2.4615859 *  3.6640144    3.6492427  
   7 H       2.4615859 *  0.0000000    1.8814640 *  3.6657947  
   8 H       3.6640144    1.8814640 *  0.0000000    3.9435883  
   9 O       3.6492427    3.6657947    3.9435883    0.0000000  

  * ... LESS THAN  3.000


     ATOMIC BASIS SET
     ----------------
 THE CONTRACTED PRIMITIVE FUNCTIONS HAVE BEEN UNNORMALIZED
 THE CONTRACTED BASIS FUNCTIONS ARE NOW NORMALIZED TO UNITY

  SHELL TYPE  PRIMITIVE        EXPONENT          CONTRACTION COEFFICIENT(S)

 C         

      1   S       1          4563.2400000    0.001966650249
      1   S       2           682.0240000    0.015230601932
      1   S       3           154.9730000    0.076126909656
      1   S       4            44.4553000    0.260801033080
      1   S       5            13.0290000    0.616462078191
      1   S       6             1.8277300    0.221006028032

      2   L       7            20.9642000    0.114660080729    0.040248692673
      2   L       8             4.8033100    0.919999647749    0.237593956746
      2   L       9             1.4593300   -0.003030682134    0.815853851473

      3   L      10             0.4834560    1.000000000000    1.000000000000

      4   L      11             0.1455850    1.000000000000    1.000000000000

      5   L      12             0.0438000    1.000000000000    1.000000000000

      6   D      13             1.2520000    1.000000000000

      7   D      14             0.3130000    1.000000000000

 C         

      8   S      15          4563.2400000    0.001966650249
      8   S      16           682.0240000    0.015230601932
      8   S      17           154.9730000    0.076126909656
      8   S      18            44.4553000    0.260801033080
      8   S      19            13.0290000    0.616462078191
      8   S      20             1.8277300    0.221006028032

      9   L      21            20.9642000    0.114660080729    0.040248692673
      9   L      22             4.8033100    0.919999647749    0.237593956746
      9   L      23             1.4593300   -0.003030682134    0.815853851473

     10   L      24             0.4834560    1.000000000000    1.000000000000

     11   L      25             0.1455850    1.000000000000    1.000000000000

     12   L      26             0.0438000    1.000000000000    1.000000000000

     13   D      27             1.2520000    1.000000000000

     14   D      28             0.3130000    1.000000000000

 C         

     15   S      29          4563.2400000    0.001966650249
     15   S      30           682.0240000    0.015230601932
     15   S      31           154.9730000    0.076126909656
     15   S      32            44.4553000    0.260801033080
     15   S      33            13.0290000    0.616462078191
     15   S      34             1.8277300    0.221006028032

     16   L      35            20.9642000    0.114660080729    0.040248692673
     16   L      36             4.8033100    0.919999647749    0.237593956746
     16   L      37             1.4593300   -0.003030682134    0.815853851473

     17   L      38             0.4834560    1.000000000000    1.000000000000

     18   L      39             0.1455850    1.000000000000    1.000000000000

     19   L      40             0.0438000    1.000000000000    1.000000000000

     20   D      41             1.2520000    1.000000000000

     21   D      42             0.3130000    1.000000000000

 O         

     22   S      43          8588.5000000    0.001895150083
     22   S      44          1297.2300000    0.014385900631
     22   S      45           299.2960000    0.070732003103
     22   S      46            87.3771000    0.240001010530
     22   S      47            25.6789000    0.594797026097
     22   S      48             3.7400400    0.280802012320

     23   L      49            42.1175000    0.113889012440    0.036511397380
     23   L      50             9.6283700    0.920811100576    0.237152982984
     23   L      51             2.8533200   -0.003274470358    0.819701941186

     24   L      52             0.9056610    1.000000000000    1.000000000000

     25   L      53             0.2556110    1.000000000000    1.000000000000

     26   L      54             0.0845000    1.000000000000    1.000000000000

     27   D      55             2.5840000    1.000000000000

     28   D      56             0.6460000    1.000000000000

 H         

     29   S      57            33.8650000    0.025493814541
     29   S      58             5.0947900    0.190373108582
     29   S      59             1.1587900    0.852161486043

     30   S      60             0.3258400    1.000000000000

     31   S      61             0.1027410    1.000000000000

     32   P      62             0.7500000    1.000000000000

 H         

     33   S      63            33.8650000    0.025493814541
     33   S      64             5.0947900    0.190373108582
     33   S      65             1.1587900    0.852161486043

     34   S      66             0.3258400    1.000000000000

     35   S      67             0.1027410    1.000000000000

     36   P      68             0.7500000    1.000000000000

 H         

     37   S      69            33.8650000    0.025493814541
     37   S      70             5.0947900    0.190373108582
     37   S      71             1.1587900    0.852161486043

     38   S      72             0.3258400    1.000000000000

     39   S      73             0.1027410    1.000000000000

     40   P      74             0.7500000    1.000000000000

 H         

     41   S      75            33.8650000    0.025493814541
     41   S      76             5.0947900    0.190373108582
     41   S      77             1.1587900    0.852161486043

     42   S      78             0.3258400    1.000000000000

     43   S      79             0.1027410    1.000000000000

     44   P      80             0.7500000    1.000000000000

 O         

     45   S      81          8588.5000000    0.001895150083
     45   S      82          1297.2300000    0.014385900631
     45   S      83           299.2960000    0.070732003103
     45   S      84            87.3771000    0.240001010530
     45   S      85            25.6789000    0.594797026097
     45   S      86             3.7400400    0.280802012320

     46   L      87            42.1175000    0.113889012440    0.036511397380
     46   L      88             9.6283700    0.920811100576    0.237152982984
     46   L      89             2.8533200   -0.003274470358    0.819701941186

     47   L      90             0.9056610    1.000000000000    1.000000000000

     48   L      91             0.2556110    1.000000000000    1.000000000000

     49   L      92             0.0845000    1.000000000000    1.000000000000

     50   D      93             2.5840000    1.000000000000

     51   D      94             0.6460000    1.000000000000

 TOTAL NUMBER OF BASIS SET SHELLS             =   51
 NUMBER OF CARTESIAN GAUSSIAN BASIS FUNCTIONS =  169
 NUMBER OF ELECTRONS                          =   38
 CHARGE OF MOLECULE                           =    0
 SPIN MULTIPLICITY                            =    1
 NUMBER OF OCCUPIED ORBITALS (ALPHA)          =   19
 NUMBER OF OCCUPIED ORBITALS (BETA )          =   19
 TOTAL NUMBER OF ATOMS                        =    9
 THE NUCLEAR REPULSION ENERGY IS      154.8801467671

 SELECTED MURRAY-HANDY-LAMING RADIAL GRID

 LEGACY BECKE'S FUZZY CELL METHOD

 SELECTED ORIGINAL BECKE'S PARTITION FUNCTION

     LEBEDEV GRID-BASED DFT OPTIONS
     ------------------------------
     DFTTYP=B3LYP   
     NRAD  =      96     NLEB  =     302
     NRAD0 =      24     NLEB0 =     110
     SWOFF =    5.00E-03 (PURE SCF -> DFT)
     SWITCH=    3.00E-04 (COARSE -> TIGHT GRID)
     THRESH=    0.00E+00 GTHRE=    1.00E+00

 GRIMME'S EMPIRICAL DISPERSION CORRECTION= F

     $CONTRL OPTIONS
     ---------------
 SCFTYP=RHF          RUNTYP=SADPOINT     EXETYP=RUN     
 MPLEVL=       0     CITYP =NONE         CCTYP =NONE         VBTYP =NONE    
 DFTTYP=B3LYP        TDDFT =NONE    
 MULT  =       1     ICHARG=       0     NZVAR =       0     COORD =UNIQUE  
 PP    =NONE         RELWFN=NONE         LOCAL =NONE         NUMGRD=       F
 ISPHER=      -1     NOSYM =       0     MAXIT =      30     UNITS =ANGS    
 PLTORB=       F     MOLPLT=       F     AIMPAC=       F     FRIEND=        
 NPRINT=       7     IREST =       0     GEOM  =INPUT   
 NORMF =       0     NORMP =       0     ITOL  =      20     ICUT  =       9
 INTTYP=BEST         GRDTYP=BEST         QMTTOL= 1.0E-06

     $SYSTEM OPTIONS
     ---------------
  REPLICATED MEMORY=    20000000 WORDS (ON EVERY NODE).
 DISTRIBUTED MEMDDI=           0 MILLION WORDS IN AGGREGATE,
 MEMDDI DISTRIBUTED OVER   4 PROCESSORS IS           0 WORDS/PROCESSOR.
 TOTAL MEMORY REQUESTED ON EACH PROCESSOR=    20000000 WORDS.
 TIMLIM=      525600.00 MINUTES, OR     365.0 DAYS.
 PARALL= T  BALTYP=  DLB     KDIAG=    0  COREFL= F
 MXSEQ2=     300 MXSEQ3=     150  mem10=         0  mem22=         0

 Using Gaussians for PCM contribution to MEP, params: 0.10000E+01 0.10000E-07

          ----------------
          PROPERTIES INPUT
          ----------------

     MOMENTS            FIELD           POTENTIAL          DENSITY
 IEMOM =       1   IEFLD =       0   IEPOT =       0   IEDEN =       0
 WHERE =COMASS     WHERE =NUCLEI     WHERE =NUCLEI     WHERE =NUCLEI  
 OUTPUT=BOTH       OUTPUT=BOTH       OUTPUT=BOTH       OUTPUT=BOTH    
 IEMINT=       0   IEFINT=       0                     IEDINT=       0
                                                       MORB  =       0
          EXTRAPOLATION IN EFFECT
          DIIS IN EFFECT
 ORBITAL PRINTING OPTION: NPREO=     1   169     2     1

     -------------------------------
     INTEGRAL TRANSFORMATION OPTIONS
     -------------------------------
     NWORD  =            0
     CUTOFF = 1.0E-09     MPTRAN =       0
     DIRTRF =       T     AOINTS =DUP     

          ----------------------
          INTEGRAL INPUT OPTIONS
          ----------------------
 NOPK  =       1 NORDER=       0 SCHWRZ=       T

     ------------------------------------------
     THE POINT GROUP IS C1 , NAXIS= 0, ORDER= 1
     ------------------------------------------

     DIMENSIONS OF THE SYMMETRY SUBSPACES ARE
 A   =  169

 ..... DONE SETTING UP THE RUN .....
 CPU     0: STEP CPU TIME=     0.04 TOTAL CPU TIME=          0.0 (      0.0 MIN)
 TOTAL WALL CLOCK TIME=          0.1 SECONDS, CPU UTILIZATION IS    44.44%


          -----------------------------
          STATIONARY POINT LOCATION RUN
          -----------------------------

 OBTAINING INITIAL HESSIAN, HESS=READ    

 $HESS GROUP READ FROM CARDS
 ENERGY IS     -266.9861183746 E(NUC) IS      154.8799712421                     

          PARAMETERS CONTROLLING GEOMETRY SEARCH ARE
          METHOD =QA                  UPHESS =POWELL  
          NNEG   =         1          NFRZ   =         0
          NSTEP  =       300          IFOLOW =         1
          HESS   =READ                RESTAR =         F
          IHREP  =         0          HSSEND =         T
          NPRT   =         0          NPUN   =         0
          OPTTOL = 5.000E-05          RMIN   = 1.500E-03
          RMAX   = 1.000E-01          RLIM   = 7.000E-02
          DXMAX  = 2.000E-01          PURIFY =         F
          MOVIE  =         F          TRUPD  =         T
          TRMAX  = 3.000E-01          TRMIN  = 5.000E-02
          ITBMAT =         5          STPT   =         F
          STSTEP = 1.000E-02          PROJCT=          T

 BEGINNING GEOMETRY SEARCH POINT NSERCH=   0 ...

 COORDINATES OF ALL ATOMS ARE (ANGS)
   ATOM   CHARGE       X              Y              Z
 ------------------------------------------------------------
 C           6.0   1.4990800000  -0.8377400000  -0.4879200000
 C           6.0  -0.8153800000  -0.8264100000   0.0126900000
 C           6.0   0.3753100000   1.1362200000   0.2378700000
 O           8.0  -0.3906900000   0.1883100000   0.7418400000
 H           1.0  -1.3443400000  -1.5744600000   0.5845300000
 H           1.0  -1.0486600000  -0.6573100000  -1.0300100000
 H           1.0   0.2299500000   1.4326600000  -0.7921300000
 H           1.0   0.7293900000   1.8412000000   0.9752300000
 O           8.0   2.4469500000  -1.4528000000  -0.3481900000

          ********************
          1 ELECTRON INTEGRALS
          ********************
 ...... END OF ONE-ELECTRON INTEGRALS ......
 CPU     0: STEP CPU TIME=     0.01 TOTAL CPU TIME=          0.0 (      0.0 MIN)
 TOTAL WALL CLOCK TIME=          0.1 SECONDS, CPU UTILIZATION IS    50.00%

          -------------
          GUESS OPTIONS
          -------------
          GUESS =MOREAD            NORB  =      19          NORDER=       0
          MIX   =       F          PRTMO =       F          PUNMO =       F
          TOLZ  = 1.0E-08          TOLE  = 1.0E-05
          SYMDEN=       F          PURIFY=       F

 INITIAL GUESS ORBITALS GENERATED BY MOREAD   ROUTINE.

 SYMMETRIES FOR INITIAL GUESS ORBITALS FOLLOW.   BOTH SET(S).
    19 ORBITALS ARE OCCUPIED (    5 CORE ORBITALS).
     1=A        2=A        3=A        4=A        5=A        6=A        7=A   
     8=A        9=A       10=A       11=A       12=A       13=A       14=A   
    15=A       16=A       17=A       18=A       19=A       20=A       21=A   
    22=A       23=A       24=A       25=A       26=A       27=A       28=A   
    29=A       30=A       31=A       32=A       33=A       34=A       35=A   
    36=A       37=A       38=A       39=A       40=A       41=A       42=A   
    43=A       44=A       45=A       46=A       47=A       48=A       49=A   
    50=A       51=A       52=A       53=A       54=A       55=A       56=A   
    57=A       58=A       59=A       60=A       61=A       62=A       63=A   
    64=A       65=A       66=A       67=A       68=A       69=A       70=A   
    71=A       72=A       73=A       74=A       75=A       76=A       77=A   
    78=A       79=A       80=A       81=A       82=A       83=A       84=A   
    85=A       86=A       87=A       88=A       89=A       90=A       91=A   
    92=A       93=A       94=A       95=A       96=A       97=A       98=A   
    99=A      100=A      101=A      102=A      103=A      104=A      105=A   
   106=A      107=A      108=A      109=A      110=A      111=A      112=A   
   113=A      114=A      115=A      116=A      117=A      118=A      119=A   
   120=A      121=A      122=A      123=A      124=A      125=A      126=A   
   127=A      128=A      129=A      130=A      131=A      132=A      133=A   
   134=A      135=A      136=A      137=A      138=A      139=A      140=A   
   141=A      142=A      143=A      144=A      145=A      146=A      147=A   
   148=A      149=A      150=A      151=A      152=A      153=A      154=A   
   155=A      156=A      157=A      158=A      159=A      160=A      161=A   
   162=A      163=A      164=A      165=A      166=A      167=A      168=A   
   169=A   
 ...... END OF INITIAL ORBITAL SELECTION ......
 CPU     0: STEP CPU TIME=     0.01 TOTAL CPU TIME=          0.1 (      0.0 MIN)
 TOTAL WALL CLOCK TIME=          0.1 SECONDS, CPU UTILIZATION IS    50.00%

                    ----------------------
                    AO INTEGRAL TECHNOLOGY
                    ----------------------
     S,P,L SHELL ROTATED AXIS INTEGRALS, REPROGRAMMED BY
        KAZUYA ISHIMURA (IMS) AND JOSE SIERRA (SYNSTAR).
     S,P,D,L SHELL ROTATED AXIS INTEGRALS PROGRAMMED BY
        KAZUYA ISHIMURA (INSTITUTE FOR MOLECULAR SCIENCE).
     S,P,D,F,G SHELL TO TOTAL QUARTET ANGULAR MOMENTUM SUM 5,
        ERIC PROGRAM BY GRAHAM FLETCHER (ELORET AND NASA ADVANCED
        SUPERCOMPUTING DIVISION, AMES RESEARCH CENTER).
     S,P,D,F,G,L SHELL GENERAL RYS QUADRATURE PROGRAMMED BY
        MICHEL DUPUIS (PACIFIC NORTHWEST NATIONAL LABORATORY).

          --------------------
          2 ELECTRON INTEGRALS
          --------------------

 DIRECT SCF METHOD SKIPS INTEGRAL STORAGE ON DISK.
 DIRECT TRANSFORMATION SKIPS AO INTEGRAL STORAGE ON DISK.
  ...... END OF TWO-ELECTRON INTEGRALS .....
 CPU     0: STEP CPU TIME=     0.02 TOTAL CPU TIME=          0.1 (      0.0 MIN)
 TOTAL WALL CLOCK TIME=          0.1 SECONDS, CPU UTILIZATION IS    57.14%

          --------------------------
             R-B3LYP SCF CALCULATION
          --------------------------

     NUCLEAR ENERGY =       154.8801467671
     MAXIT =   30     NPUNCH=    2
     EXTRAP=T  DAMP=F  SHIFT=F  RSTRCT=F  DIIS=T  DEM=F  SOSCF=F
         DENSITY MATRIX CONVERGENCE THRESHOLD=  2.00E-05
     COARSE -> FINE DFT GRID SWITCH THRESHOLD=  3.00E-04 (SWITCH IN $DFT)
                   HF -> DFT SWITCH THRESHOLD=  0.00E+00 (SWOFF IN $DFT)
     MEMORY REQUIRED FOR RHF ITERS=    582618 WORDS.

 DIRECT SCF CALCULATION, SCHWRZ=T   FDIFF=T,  DIRTHR=  0.00E+00 NITDIR=10
 SCHWARZ INEQUALITY OVERHEAD:     14140 INTEGRALS, T=        0.01

 DFT CODE IS SWITCHING FROM THE FINE GRID NRAD= 96,  NLEB=  302
                      TO THE COARSE GRID NRAD0= 24, NLEB0=  110

     EXCHANGE FUNCTIONAL   =B88&HFX   
     CORRELATION FUNCTIONAL=LYP88&VWN5
     DFT THRESHOLD         =.153E-07
     GRID CHANGE THRESHOLD =.300E-03
 FOR AN EULER-MACLAURIN QUADRATURE USING  96 RADIAL POINTS:
 SMALLEST GAUSSIAN PRIMITIVE EXPONENT=        0.0438000000 OF TYPE -P-
 ON ATOM NUMBER   1 HAS RADIAL NORMALIZATION=  1.000000
  LARGEST GAUSSIAN PRIMITIVE EXPONENT=     8588.5000000000 OF TYPE -S-
 ON ATOM NUMBER   4 HAS RADIAL NORMALIZATION=  1.000000

                                                                                   NONZERO     BLOCKS
 ITER EX DEM     TOTAL ENERGY        E CHANGE  DENSITY CHANGE    DIIS ERROR      INTEGRALS    SKIPPED
          * * *   INITIATING DIIS PROCEDURE   * * *
   1  0  0     -266.9847368254  -266.9847368254   0.008761854   0.004620867       85438263     153406
   2  1  0     -266.9847830701    -0.0000462447   0.001755323   0.001067281       82404482     210327
   3  2  0     -266.9847743030     0.0000087671   0.001131453   0.001629635       78921164     247628
   4  3  0     -266.9847892502    -0.0000149472   0.000119625   0.000091371       78136270     255173
 DFT CODE IS SWITCHING BACK TO THE FINE GRID
          * * *   INITIATING DIIS PROCEDURE   * * *
   5  4  0     -266.9860661323    -0.0012768821   0.008713776   0.004613482       85434151     153480
   6  5  0     -266.9861117543    -0.0000456220   0.001779739   0.001114889       82405520     210310
   7  6  0     -266.9861020993     0.0000096551   0.001141159   0.001706895       79000362     247002
   8  7  0     -266.9861180272    -0.0000159279   0.000228388   0.000211969       78294165     253684
   9  8  0     -266.9861181323    -0.0000001051   0.000118226   0.000177514       76081016     279591
  10  9  0     -266.9861183721    -0.0000002398   0.000024718   0.000018953       74546404     295643
  11 10  0     -266.9861183760    -0.0000000039   0.000010560   0.000005548       70745145     330175
  12 11  0     -266.9861183764    -0.0000000004   0.000002957   0.000002418       66348942     374017

          -----------------
          DENSITY CONVERGED
          -----------------
     TIME TO FORM FOCK OPERATORS=      20.3 SECONDS (       1.7 SEC/ITER)
     FOCK TIME ON FIRST ITERATION=       1.2, LAST ITERATION=       2.5
     TIME TO SOLVE SCF EQUATIONS=       0.1 SECONDS (       0.0 SEC/ITER)

 FINAL R-B3LYP ENERGY IS     -266.9861183764 AFTER  12 ITERATIONS
 DFT EXCHANGE + CORRELATION ENERGY =       -27.9978465314
 TOTAL ELECTRON NUMBER             =        38.0001193212

          ------------
          EIGENVECTORS
          ------------

                      1          2          3          4          5
                  -19.2292   -19.1954   -10.2658   -10.2359   -10.2356
                     A          A          A          A          A   
    1  C  1  S   -0.000002   0.000044   0.564930  -0.000006  -0.000014
    2  C  1  S    0.000011  -0.000183   0.453916   0.000030   0.000015
    3  C  1  X   -0.000053   0.000153   0.001649   0.000042   0.000089
    4  C  1  Y    0.000031  -0.000101  -0.001092  -0.000060  -0.000017
    5  C  1  Z    0.000021   0.000048   0.000317   0.000001   0.000006
    6  C  1  S   -0.000614  -0.000776   0.029612  -0.000103  -0.000107
    7  C  1  X    0.000047   0.000393   0.003090   0.000016   0.000130
    8  C  1  Y   -0.000038  -0.000249  -0.002021  -0.000189   0.000134
    9  C  1  Z    0.000068  -0.000055   0.000624  -0.000269  -0.000236
   10  C  1  S    0.001318   0.001554   0.065313  -0.001409  -0.001520
   11  C  1  X   -0.000687  -0.002984   0.007120  -0.001262  -0.001098
   12  C  1  Y    0.000402   0.001938  -0.004555   0.000454   0.000956
   13  C  1  Z    0.000163  -0.000286   0.000693   0.000089   0.000146
   14  C  1  S   -0.004320   0.005833  -0.005386  -0.001816  -0.001804
   15  C  1  X    0.001280   0.001348   0.004636   0.000550  -0.000338
   16  C  1  Y   -0.000707  -0.001015  -0.002820   0.000674  -0.000707
   17  C  1  Z   -0.000748   0.001058  -0.000544  -0.000294  -0.000445
   18  C  1 XX    0.000067  -0.000561  -0.010524  -0.000022  -0.000155
   19  C  1 YY    0.000027  -0.000386  -0.011589  -0.000086   0.000036
   20  C  1 ZZ    0.000041  -0.000230  -0.012340  -0.000007  -0.000022
   21  C  1 XY   -0.000040   0.000226  -0.001337   0.000094   0.000023
   22  C  1 XZ   -0.000035  -0.000034   0.000199   0.000095   0.000067
   23  C  1 YZ    0.000018   0.000016  -0.000125  -0.000042  -0.000056
   24  C  1 XX   -0.000672  -0.001162  -0.019193  -0.000163   0.001687
   25  C  1 YY   -0.000326  -0.001336  -0.019583   0.001212  -0.000666
   26  C  1 ZZ   -0.000357  -0.001590  -0.019677   0.000013   0.000020
   27  C  1 XY    0.000290  -0.000201  -0.000824  -0.000883   0.000205
   28  C  1 XZ    0.000456  -0.000103   0.000978  -0.000937  -0.000761
   29  C  1 YZ   -0.000266   0.000090  -0.000671   0.000591   0.000492
   30  C  2  S    0.000018  -0.000003   0.000011  -0.007753   0.565152
   31  C  2  S   -0.000074   0.000014   0.000025  -0.006337   0.453208
   32  C  2  X    0.000070   0.000014  -0.000180  -0.000011   0.000215
   33  C  2  Y    0.000215   0.000001  -0.000028  -0.000060   0.000794
   34  C  2  Z    0.000078   0.000008   0.000059  -0.000079   0.000578
   35  C  2  S    0.000464  -0.000047  -0.000749  -0.000700   0.030995
   36  C  2  X    0.000128  -0.000102   0.000241  -0.000218  -0.000119
   37  C  2  Y    0.000324  -0.000044   0.000177  -0.000158   0.001036
   38  C  2  Z    0.000654  -0.000059  -0.000367   0.000302   0.000174
   39  C  2  S   -0.001600  -0.001076   0.001381   0.003717   0.060330
   40  C  2  X   -0.000394  -0.000378   0.001745   0.000323  -0.000756
   41  C  2  Y   -0.000598  -0.000503   0.001525   0.001558   0.002256
   42  C  2  Z   -0.000203   0.000269  -0.000778  -0.000407   0.002836
   43  C  2  S    0.003922  -0.001433   0.003449   0.006389  -0.002241
   44  C  2  X    0.001351  -0.000587   0.001040   0.001722  -0.000703
   45  C  2  Y    0.000969   0.000199   0.000166   0.001727  -0.000944
   46  C  2  Z    0.000604  -0.000171  -0.000459  -0.000342   0.000741
   47  C  2 XX   -0.000106   0.000005  -0.000201   0.000039  -0.012291
   48  C  2 YY    0.000145  -0.000011   0.000011  -0.000040  -0.011787
   49  C  2 ZZ    0.000059   0.000035   0.000021   0.000152  -0.011636
   50  C  2 XY    0.000137   0.000031  -0.000048  -0.000051   0.000638
   51  C  2 XZ    0.000074  -0.000025   0.000037  -0.000006   0.000132
   52  C  2 YZ    0.000193  -0.000007  -0.000012   0.000033   0.000053
   53  C  2 XX    0.000116  -0.000053   0.000928  -0.000266  -0.020123
   54  C  2 YY    0.000294   0.000044  -0.000847   0.000795  -0.018398
   55  C  2 ZZ    0.000257  -0.000108  -0.000277   0.000094  -0.017592
   56  C  2 XY    0.000126  -0.000170  -0.000012   0.000745   0.000251
   57  C  2 XZ    0.000009   0.000096   0.000052  -0.000253   0.000619
   58  C  2 YZ    0.000406  -0.000004   0.000659  -0.000440   0.000355
   59  C  3  S    0.000018  -0.000003   0.000000   0.565150   0.007795
   60  C  3  S   -0.000076   0.000015   0.000025   0.453215   0.006131
   61  C  3  X   -0.000164   0.000006  -0.000059  -0.000655   0.000037
   62  C  3  Y   -0.000173  -0.000014   0.000153  -0.000637   0.000033
   63  C  3  Z    0.000034   0.000006   0.000075   0.000417  -0.000055
   64  C  3  S    0.000421  -0.000007  -0.000794   0.031029   0.000149
   65  C  3  X   -0.000295  -0.000003  -0.000027  -0.000979  -0.000016
   66  C  3  Y   -0.000362   0.000113  -0.000196  -0.000419   0.000206
   67  C  3  Z    0.000576  -0.000041  -0.000390  -0.000003   0.000347
   68  C  3  S   -0.001427  -0.001218   0.001509   0.060134   0.005413
   69  C  3  X    0.000355   0.000210  -0.000464  -0.002566  -0.001244
   70  C  3  Y    0.000625   0.000539  -0.002103  -0.000860  -0.000959
   71  C  3  Z   -0.000079   0.000403  -0.001153   0.002468  -0.000648
   72  C  3  S    0.003964  -0.001394   0.003318  -0.002530   0.006197
   73  C  3  X   -0.000298  -0.000384   0.000396   0.000465  -0.000663
   74  C  3  Y   -0.001735   0.000457  -0.000881   0.001019  -0.002173
   75  C  3  Z    0.000293  -0.000157  -0.000572   0.000974  -0.000775
   76  C  3 XX    0.000013  -0.000025   0.000003  -0.012345  -0.000318
   77  C  3 YY    0.000082   0.000018  -0.000176  -0.011691  -0.000331
   78  C  3 ZZ   -0.000005   0.000041   0.000027  -0.011657  -0.000184
   79  C  3 XY    0.000231   0.000007   0.000075   0.000622  -0.000039
   80  C  3 XZ   -0.000103  -0.000013   0.000038   0.000032  -0.000057
   81  C  3 YZ   -0.000124   0.000024  -0.000063  -0.000090  -0.000050
   82  C  3 XX    0.000194   0.000154  -0.000370  -0.018905  -0.000552
   83  C  3 YY    0.000263  -0.000105   0.000625  -0.019297  -0.000173
   84  C  3 ZZ    0.000113  -0.000106  -0.000492  -0.017817  -0.000189
   85  C  3 XY    0.000233  -0.000038  -0.000665   0.001013   0.000850
   86  C  3 XZ   -0.000324   0.000070  -0.000678  -0.000038   0.000402
   87  C  3 YZ   -0.000167  -0.000105  -0.000228  -0.000961   0.000549
   88  O  4  S    0.552693  -0.000005   0.000001  -0.000046  -0.000047
   89  O  4  S    0.463348  -0.000008  -0.000009  -0.000107  -0.000109
   90  O  4  X    0.000272   0.000001   0.000065   0.000099  -0.000116
   91  O  4  Y   -0.000001   0.000002  -0.000034   0.000196  -0.000156
   92  O  4  Z   -0.001424  -0.000014  -0.000046  -0.000072  -0.000114
   93  O  4  S    0.022568  -0.000144  -0.000833   0.001771   0.001816
   94  O  4  X   -0.000292  -0.000001  -0.000310  -0.000242   0.000349
   95  O  4  Y    0.000066  -0.000010   0.000162  -0.000554   0.000413
   96  O  4  Z    0.000971   0.000065   0.000226   0.000166   0.000280
   97  O  4  S    0.031931   0.000863   0.001257  -0.006476  -0.006617
   98  O  4  X    0.000372   0.000015  -0.000279  -0.001984   0.000773
   99  O  4  Y   -0.000138   0.000041   0.000160  -0.002198   0.002368
  100  O  4  Z   -0.000807  -0.000460  -0.000071   0.001731   0.002306
  101  O  4  S   -0.011134   0.001421  -0.003547  -0.012963  -0.013376
  102  O  4  X   -0.000174   0.000084  -0.000380  -0.001364   0.000736
  103  O  4  Y    0.000079  -0.000024   0.000051  -0.001855   0.001630
  104  O  4  Z    0.000114  -0.000103   0.001440   0.002310   0.002782
  105  O  4 XX   -0.006935   0.000008  -0.000001  -0.000052  -0.000127
  106  O  4 YY   -0.006773  -0.000005  -0.000005   0.000006   0.000040
  107  O  4 ZZ   -0.006999  -0.000014   0.000008  -0.000053  -0.000013
  108  O  4 XY    0.000183  -0.000016  -0.000010   0.000157   0.000103
  109  O  4 XZ    0.000008   0.000004   0.000020  -0.000064   0.000048
  110  O  4 YZ    0.000038  -0.000003  -0.000016  -0.000081   0.000119
  111  O  4 XX   -0.012737  -0.000130  -0.000580   0.000350   0.001057
  112  O  4 YY   -0.013179  -0.000059  -0.000477  -0.000294  -0.000570
  113  O  4 ZZ   -0.012482  -0.000029  -0.000524   0.000630   0.000221
  114  O  4 XY   -0.000494   0.000086   0.000112  -0.001571  -0.001045
  115  O  4 XZ   -0.000045  -0.000023   0.000034   0.000648  -0.000557
  116  O  4 YZ   -0.000100   0.000017  -0.000002   0.000851  -0.001278
  117  H  5  S    0.000034   0.000055  -0.000008  -0.000076  -0.000117
  118  H  5  S   -0.000181  -0.000106   0.001654  -0.001115  -0.000782
  119  H  5  S    0.000301   0.000133   0.000650   0.000346  -0.004874
  120  H  5  X   -0.000087  -0.000046   0.000404  -0.000165  -0.000881
  121  H  5  Y   -0.000246   0.000043   0.000102  -0.000175  -0.001056
  122  H  5  Z    0.000014   0.000008  -0.000142   0.000161   0.000562
  123  H  6  S    0.000040   0.000007   0.000121   0.000106  -0.000253
  124  H  6  S    0.000357   0.000182  -0.000677  -0.000877  -0.001271
  125  H  6  S   -0.000097   0.000249   0.000357  -0.000949  -0.002703
  126  H  6  X   -0.000025  -0.000014  -0.000268  -0.000306  -0.000251
  127  H  6  Y    0.000039   0.000039   0.000103  -0.000264   0.000265
  128  H  6  Z   -0.000022   0.000013  -0.000077  -0.000123  -0.001621
  129  H  7  S    0.000040   0.000005   0.000127  -0.000252   0.000101
  130  H  7  S    0.000347   0.000203  -0.000679  -0.001263  -0.000933
  131  H  7  S   -0.000132   0.000250   0.000386  -0.002628  -0.001037
  132  H  7  X   -0.000045  -0.000039  -0.000201  -0.000181   0.000098
  133  H  7  Y    0.000008  -0.000010   0.000206   0.000351   0.000422
  134  H  7  Z   -0.000027   0.000008  -0.000067  -0.001611  -0.000094
  135  H  8  S    0.000034   0.000052  -0.000012  -0.000115  -0.000081
  136  H  8  S   -0.000171  -0.000090   0.001603  -0.000731  -0.001155
  137  H  8  S    0.000289   0.000129   0.000659  -0.004846   0.000232
  138  H  8  X    0.000173  -0.000060   0.000117   0.000462   0.000077
  139  H  8  Y    0.000184   0.000016  -0.000376   0.001145   0.000229
  140  H  8  Z    0.000063   0.000004  -0.000186   0.000805   0.000230
  141  O  9  S    0.000006   0.552594  -0.000202  -0.000001  -0.000001
  142  O  9  S    0.000001   0.463513  -0.000197   0.000011   0.000011
  143  O  9  X   -0.000009  -0.001115  -0.000529   0.000007   0.000025
  144  O  9  Y    0.000005   0.000720   0.000343  -0.000015   0.000003
  145  O  9  Z    0.000004  -0.000151  -0.000076  -0.000031  -0.000029
  146  O  9  S   -0.000011   0.022413   0.000253  -0.000218  -0.000187
  147  O  9  X    0.000031   0.000589   0.001873  -0.000007  -0.000074
  148  O  9  Y   -0.000018  -0.000376  -0.001213   0.000029  -0.000014
  149  O  9  Z   -0.000013   0.000066   0.000266   0.000123   0.000117
  150  O  9  S    0.000597   0.033770  -0.007826   0.000625   0.000731
  151  O  9  X   -0.000108  -0.001609   0.004457   0.000274  -0.000827
  152  O  9  Y    0.000137   0.001013  -0.002777   0.000957  -0.000720
  153  O  9  Z   -0.000524   0.000003  -0.000140   0.000674   0.000473
  154  O  9  S    0.000760  -0.010379  -0.017349   0.001357   0.001417
  155  O  9  X   -0.000377   0.000428   0.003135  -0.000401   0.000175
  156  O  9  Y    0.000205  -0.000223  -0.002148  -0.000358   0.000559
  157  O  9  Z    0.000259  -0.000374   0.001276  -0.000173  -0.000085
  158  O  9 XX    0.000003  -0.006722   0.000246   0.000047  -0.000041
  159  O  9 YY    0.000007  -0.006844   0.000044  -0.000040   0.000059
  160  O  9 ZZ   -0.000018  -0.006924  -0.000086   0.000018   0.000006
  161  O  9 XY    0.000013  -0.000160  -0.000246   0.000024  -0.000023
  162  O  9 XZ   -0.000024   0.000045   0.000016   0.000060   0.000023
  163  O  9 YZ    0.000020  -0.000029  -0.000010  -0.000010  -0.000046
  164  O  9 XX   -0.000093  -0.012337  -0.001861  -0.000227   0.000349
  165  O  9 YY   -0.000067  -0.012358  -0.000227   0.000258  -0.000325
  166  O  9 ZZ    0.000057  -0.012363   0.000865  -0.000133  -0.000068
  167  O  9 XY   -0.000010  -0.000014   0.002028  -0.000203   0.000084
  168  O  9 XZ    0.000132  -0.000055  -0.000223  -0.000344  -0.000157
  169  O  9 YZ   -0.000104   0.000033   0.000141   0.000090   0.000248

                      6          7          8          9         10
                   -1.1388    -1.1283    -0.7654    -0.6226    -0.5508
                     A          A          A          A          A   
    1  C  1  S   -0.013097  -0.063194  -0.000123  -0.017955  -0.075462
    2  C  1  S   -0.019195  -0.091381  -0.000194  -0.027477  -0.114528
    3  C  1  X    0.012573   0.090276  -0.003011  -0.014736   0.030445
    4  C  1  Y   -0.008413  -0.058583  -0.004412   0.008851  -0.020642
    5  C  1  Z    0.003586   0.013228  -0.000454   0.000019   0.009819
    6  C  1  S    0.040248   0.210538   0.000611   0.090689   0.362850
    7  C  1  X    0.011060   0.096712  -0.004312  -0.018453   0.047288
    8  C  1  Y   -0.007594  -0.062792  -0.006183   0.010868  -0.032214
    9  C  1  Z    0.004420   0.013863  -0.000601   0.000606   0.015970
   10  C  1  S    0.021228   0.095268   0.000248   0.027277   0.157736
   11  C  1  X   -0.008250   0.006286  -0.004298  -0.013785   0.002110
   12  C  1  Y    0.005233  -0.003902  -0.006420   0.008644  -0.001446
   13  C  1  Z   -0.000949   0.000764  -0.000648  -0.003089   0.001167
   14  C  1  S   -0.017650  -0.007375  -0.000682  -0.004302   0.031735
   15  C  1  X    0.005378   0.009923   0.001386   0.000735  -0.013555
   16  C  1  Y   -0.003111  -0.006239   0.001869  -0.000477   0.007929
   17  C  1  Z   -0.001936  -0.000323   0.000112  -0.000486   0.004225
   18  C  1 XX    0.002721   0.015660   0.000124   0.001081   0.010990
   19  C  1 YY    0.000073   0.002162  -0.000091   0.000983   0.004473
   20  C  1 ZZ   -0.001288  -0.006865  -0.000038   0.000575   0.000598
   21  C  1 XY   -0.003264  -0.017490   0.000100  -0.000095  -0.008340
   22  C  1 XZ    0.000264   0.004041  -0.000120  -0.000031   0.001617
   23  C  1 YZ   -0.000236  -0.002664  -0.000191   0.000059  -0.001145
   24  C  1 XX   -0.003117  -0.004164   0.006202   0.012350   0.027227
   25  C  1 YY   -0.004184  -0.012182  -0.005790   0.011344   0.020557
   26  C  1 ZZ   -0.005782  -0.017129  -0.000224   0.006393   0.017135
   27  C  1 XY   -0.001096  -0.010674   0.003641  -0.001123  -0.008656
   28  C  1 XZ   -0.000379   0.002393  -0.000254   0.000987   0.001722
   29  C  1 YZ    0.000372  -0.001620  -0.001814  -0.000064  -0.001239
   30  C  2  S   -0.037554   0.006381  -0.073550  -0.061996   0.012269
   31  C  2  S   -0.053835   0.009294  -0.109538  -0.094037   0.018765
   32  C  2  X    0.017637  -0.002584   0.000966  -0.025800   0.039564
   33  C  2  Y    0.042572  -0.007820   0.031211  -0.027416   0.016731
   34  C  2  Z    0.027078  -0.004964   0.037611  -0.058008  -0.005975
   35  C  2  S    0.125828  -0.024031   0.301220   0.273351  -0.056077
   36  C  2  X    0.024578  -0.004242   0.004071  -0.029827   0.056152
   37  C  2  Y    0.056652  -0.010229   0.044965  -0.030110   0.021543
   38  C  2  Z    0.034080  -0.006606   0.055214  -0.071123  -0.008219
   39  C  2  S    0.058341  -0.009105   0.124614   0.132772  -0.032466
   40  C  2  X    0.004705   0.000896  -0.005834  -0.012165   0.036406
   41  C  2  Y    0.011731  -0.002225   0.005423  -0.014802   0.005672
   42  C  2  Z    0.010140  -0.000437   0.011457  -0.031228  -0.005235
   43  C  2  S    0.014024   0.005098   0.053222   0.005514  -0.017506
   44  C  2  X    0.002822   0.001292   0.007600  -0.000917  -0.002954
   45  C  2  Y    0.000366   0.000204   0.012497  -0.000170  -0.001645
   46  C  2  Z   -0.000786  -0.000998   0.003124  -0.002922  -0.000715
   47  C  2 XX   -0.001330   0.000020  -0.001296   0.002193   0.001445
   48  C  2 YY    0.009168  -0.001528   0.007567   0.001571  -0.000865
   49  C  2 ZZ    0.002467  -0.000149   0.008638   0.005750  -0.002174
   50  C  2 XY    0.006623  -0.001109   0.005023   0.001527   0.001488
   51  C  2 XZ    0.003891  -0.000706   0.002471  -0.001172   0.002045
   52  C  2 YZ    0.008718  -0.001645   0.007042  -0.007653   0.001646
   53  C  2 XX   -0.004954   0.001562   0.002521   0.015175   0.003025
   54  C  2 YY    0.004751  -0.002395   0.006638   0.016879  -0.004406
   55  C  2 ZZ   -0.010299  -0.000490   0.010316   0.010169  -0.006187
   56  C  2 XY    0.004819  -0.001898  -0.001081   0.004265   0.001639
   57  C  2 XZ    0.003540   0.000405   0.004120  -0.002259   0.001446
   58  C  2 YZ    0.009014  -0.000106   0.012211  -0.006050   0.002188
   59  C  3  S   -0.037657   0.006431   0.073485  -0.062149   0.012399
   60  C  3  S   -0.053983   0.009373   0.109434  -0.094269   0.018971
   61  C  3  X   -0.031994   0.006169   0.030692   0.018096   0.003527
   62  C  3  Y   -0.039201   0.006628   0.021122   0.044559  -0.041727
   63  C  3  Z    0.017796  -0.003328  -0.031706  -0.049875  -0.011903
   64  C  3  S    0.126080  -0.024249  -0.300750   0.273689  -0.056924
   65  C  3  X   -0.041843   0.007663   0.043134   0.019885   0.006913
   66  C  3  Y   -0.052716   0.009483   0.032855   0.051540  -0.058111
   67  C  3  Z    0.021660  -0.004345  -0.046388  -0.061850  -0.016248
   68  C  3  S    0.058896  -0.008822  -0.125149   0.134358  -0.032003
   69  C  3  X   -0.009190   0.002161   0.008620   0.010322   0.011675
   70  C  3  Y   -0.010958   0.000522  -0.000692   0.022450  -0.033539
   71  C  3  Z    0.007594   0.000255  -0.010765  -0.026955  -0.008857
   72  C  3  S    0.014253   0.005621  -0.052536   0.006944  -0.016228
   73  C  3  X    0.001034   0.000599   0.007909  -0.000112  -0.000002
   74  C  3  Y   -0.002615  -0.001225   0.012580   0.000929   0.003064
   75  C  3  Z   -0.001114  -0.001137  -0.000254  -0.002814  -0.000046
   76  C  3 XX    0.003128  -0.000567  -0.002954  -0.000424  -0.001328
   77  C  3 YY    0.007518  -0.001427  -0.005693   0.001905   0.002655
   78  C  3 ZZ   -0.000315   0.000374  -0.006266   0.008062  -0.002901
   79  C  3 XY    0.010303  -0.001678  -0.008444  -0.000767   0.000127
   80  C  3 XZ   -0.004158   0.000803   0.004404   0.005381  -0.000454
   81  C  3 YZ   -0.005440   0.000978   0.005133   0.003745  -0.001709
   82  C  3 XX    0.000053  -0.000282  -0.007939   0.012436  -0.004013
   83  C  3 YY    0.002058  -0.000598  -0.005278   0.016765   0.002707
   84  C  3 ZZ   -0.012933  -0.000628  -0.005840   0.012430  -0.007038
   85  C  3 XY    0.008819  -0.002705  -0.003751   0.002014  -0.001924
   86  C  3 XZ   -0.003633  -0.000105   0.008627   0.004990  -0.001345
   87  C  3 YZ   -0.003963  -0.000653   0.009907   0.006261  -0.000821
   88  O  4  S   -0.111473   0.019874  -0.000025   0.044715   0.000686
   89  O  4  S   -0.172114   0.030580  -0.000040   0.069937   0.000849
   90  O  4  X    0.010687  -0.001412  -0.090912   0.007276   0.044836
   91  O  4  Y   -0.001339  -0.000055  -0.149855   0.002974  -0.023222
   92  O  4  Z   -0.043614   0.007556  -0.017171  -0.063105  -0.026603
   93  O  4  S    0.528357  -0.096104   0.000113  -0.225104  -0.003328
   94  O  4  X    0.017896  -0.002877  -0.135282   0.009431   0.066177
   95  O  4  Y   -0.002121   0.000128  -0.222998   0.004483  -0.034317
   96  O  4  Z   -0.074407   0.013539  -0.025569  -0.087154  -0.038668
   97  O  4  S    0.244364  -0.038240   0.000283  -0.202590  -0.005549
   98  O  4  X    0.005305  -0.001591  -0.071640   0.005971   0.051769
   99  O  4  Y   -0.000606   0.000611  -0.118158   0.003836  -0.027080
  100  O  4  Z   -0.022407   0.002320  -0.013577  -0.063941  -0.030747
  101  O  4  S   -0.018097  -0.001211  -0.000006  -0.005626   0.009003
  102  O  4  X   -0.000830  -0.000084   0.008383   0.004494  -0.004149
  103  O  4  Y   -0.000197  -0.000258   0.013889  -0.002342   0.002239
  104  O  4  Z    0.005352   0.000510   0.001537  -0.006009  -0.001662
  105  O  4 XX    0.004756  -0.000853  -0.001789  -0.003685  -0.000175
  106  O  4 YY    0.008505  -0.001627   0.000380  -0.003538  -0.000793
  107  O  4 ZZ    0.005479  -0.001123   0.001406  -0.001436   0.000454
  108  O  4 XY    0.004395  -0.000893  -0.001574   0.000209  -0.000399
  109  O  4 XZ   -0.000628   0.000057   0.004092  -0.000295  -0.001245
  110  O  4 YZ    0.001084  -0.000160   0.007092  -0.000090   0.000536
  111  O  4 XX    0.021519  -0.005755  -0.002963  -0.012369  -0.000896
  112  O  4 YY    0.030364  -0.006755   0.000136  -0.015073  -0.005578
  113  O  4 ZZ    0.024393  -0.005378   0.002851  -0.000473   0.002848
  114  O  4 XY    0.010289  -0.001216  -0.002777  -0.002866  -0.003796
  115  O  4 XZ   -0.001261   0.000433   0.008387  -0.001446  -0.006216
  116  O  4 YZ    0.002292  -0.000536   0.014365  -0.001281   0.002358
  117  H  5  S    0.009844  -0.001590   0.053401   0.060545  -0.035449
  118  H  5  S    0.014454   0.000457   0.067039   0.069883  -0.044499
  119  H  5  S   -0.006438   0.000171  -0.000719   0.016944  -0.009072
  120  H  5  X    0.002117   0.000085   0.004797   0.003828  -0.000748
  121  H  5  Y    0.003724  -0.000266   0.007118   0.006062  -0.003949
  122  H  5  Z   -0.000171  -0.000074  -0.005429  -0.007479   0.003047
  123  H  6  S    0.010443  -0.001471   0.039488   0.094354  -0.012315
  124  H  6  S    0.018463  -0.001588   0.051830   0.122669  -0.013742
  125  H  6  S   -0.005725   0.001349  -0.006277   0.020790  -0.003926
  126  H  6  X    0.001215  -0.000174   0.002198   0.003362   0.002097
  127  H  6  Y   -0.000014   0.000321   0.000847  -0.002915   0.001036
  128  H  6  Z    0.003286  -0.000483   0.009397   0.015178  -0.002238
  129  H  7  S    0.010455  -0.001500  -0.039345   0.094570  -0.012758
  130  H  7  S    0.018526  -0.001452  -0.051523   0.122932  -0.014152
  131  H  7  S   -0.005841   0.001323   0.006352   0.020509  -0.004204
  132  H  7  X    0.000222  -0.000284   0.000739   0.002481   0.000265
  133  H  7  Y   -0.001591   0.000067   0.003818  -0.004070  -0.001958
  134  H  7  Z    0.003124  -0.000508  -0.008830   0.015126  -0.002616
  135  H  8  S    0.009856  -0.001609  -0.053375   0.060773  -0.035677
  136  H  8  S    0.014421   0.000288  -0.067115   0.070180  -0.044963
  137  H  8  S   -0.006540   0.000039   0.000673   0.016877  -0.009324
  138  H  8  X   -0.002274   0.000274   0.003487  -0.002810   0.002800
  139  H  8  Y   -0.003494   0.000078   0.006511  -0.004862   0.001970
  140  H  8  Z   -0.000982  -0.000017   0.006983  -0.008741   0.003788
  141  O  9  S   -0.018507  -0.109659   0.000089   0.009393   0.058726
  142  O  9  S   -0.028435  -0.168408   0.000140   0.014682   0.091713
  143  O  9  X   -0.012151  -0.070761  -0.000875  -0.013500  -0.170966
  144  O  9  Y    0.007846   0.045898  -0.001343   0.008316   0.110253
  145  O  9  Z   -0.001527  -0.010420  -0.000121  -0.000682  -0.020987
  146  O  9  S    0.082953   0.499756  -0.000312  -0.047075  -0.293655
  147  O  9  X   -0.017615  -0.101123  -0.001649  -0.018120  -0.233386
  148  O  9  Y    0.011351   0.065592  -0.002461   0.011101   0.150482
  149  O  9  Z   -0.002109  -0.014788  -0.000236  -0.000836  -0.028498
  150  O  9  S    0.055029   0.260805  -0.000561  -0.047489  -0.334790
  151  O  9  X   -0.009009  -0.029647  -0.002536  -0.009149  -0.137367
  152  O  9  Y    0.005795   0.019280  -0.004048   0.005365   0.088238
  153  O  9  Z   -0.000816  -0.004549  -0.000487   0.000625  -0.014394
  154  O  9  S    0.004343  -0.015970   0.000236   0.005735  -0.056851
  155  O  9  X   -0.000961   0.001914   0.001364  -0.004217  -0.009824
  156  O  9  Y    0.000573  -0.001368   0.002364   0.002709   0.006533
  157  O  9  Z    0.000402   0.000867   0.000290   0.000016  -0.002906
  158  O  9 XX    0.001996   0.012071   0.000011  -0.000305   0.001116
  159  O  9 YY    0.001077   0.006467  -0.000005  -0.000614  -0.004231
  160  O  9 ZZ    0.000439   0.002781  -0.000018  -0.000921  -0.008012
  161  O  9 XY   -0.001180  -0.007237   0.000012  -0.000358  -0.006850
  162  O  9 XZ    0.000253   0.001606  -0.000037   0.000060   0.001408
  163  O  9 YZ   -0.000163  -0.001061  -0.000053  -0.000022  -0.000896
  164  O  9 XX    0.003348   0.021098   0.001409  -0.001448  -0.008399
  165  O  9 YY    0.001704   0.014266  -0.001407  -0.002082  -0.013791
  166  O  9 ZZ    0.001004   0.010519   0.000164  -0.001941  -0.017841
  167  O  9 XY   -0.002054  -0.008833   0.000706  -0.000571  -0.006724
  168  O  9 XZ    0.000194   0.001780   0.000457  -0.000250   0.000932
  169  O  9 YZ   -0.000176  -0.001285   0.000390   0.000115  -0.000552

                     11         12         13         14         15
                   -0.5319    -0.5265    -0.4876    -0.4439    -0.4411
                     A          A          A          A          A   
    1  C  1  S   -0.013642   0.000265  -0.003301   0.000050   0.006511
    2  C  1  S   -0.020123   0.000395  -0.006287   0.000082   0.010254
    3  C  1  X    0.026550  -0.007731  -0.073279   0.079220  -0.000089
    4  C  1  Y   -0.017559  -0.011388   0.040974   0.125676  -0.021123
    5  C  1  Z    0.005746  -0.001543   0.034670   0.018384   0.145395
    6  C  1  S    0.063364  -0.001266   0.035753  -0.000519  -0.028629
    7  C  1  X    0.040153  -0.011227  -0.102947   0.111736  -0.004654
    8  C  1  Y   -0.026403  -0.016434   0.057017   0.177243  -0.026711
    9  C  1  Z    0.007529  -0.002270   0.052828   0.025874   0.203088
   10  C  1  S    0.034959  -0.001088  -0.003559   0.001435  -0.025142
   11  C  1  X    0.011087  -0.006591  -0.034015   0.056655   0.019175
   12  C  1  Y   -0.008167  -0.009644   0.017029   0.089764  -0.028180
   13  C  1  Z    0.008930  -0.001368   0.031713   0.013699   0.114458
   14  C  1  S   -0.001981   0.000035   0.073706   0.002364   0.109674
   15  C  1  X   -0.003931  -0.001048  -0.026716   0.022604  -0.039929
   16  C  1  Y    0.002846  -0.001583   0.013413   0.038155   0.018774
   17  C  1  Z   -0.003437  -0.000170   0.022767   0.005565   0.042675
   18  C  1 XX    0.003251  -0.000588  -0.006040   0.017373  -0.004528
   19  C  1 YY    0.001447   0.000533  -0.000390  -0.018054   0.000486
   20  C  1 ZZ   -0.000069  -0.000030   0.003965   0.000674   0.003543
   21  C  1 XY   -0.002626  -0.000202   0.006392   0.009402  -0.000543
   22  C  1 XZ    0.001311  -0.000138   0.001037   0.004063   0.019307
   23  C  1 YZ   -0.000833  -0.000061  -0.000851   0.001177  -0.012975
   24  C  1 XX    0.003554   0.001971   0.008339   0.020636  -0.008161
   25  C  1 YY    0.001435  -0.002290   0.013655  -0.021432  -0.000869
   26  C  1 ZZ    0.002927   0.000137   0.019537   0.000334   0.003484
   27  C  1 XY   -0.002273   0.001301   0.005673   0.011287   0.000695
   28  C  1 XZ   -0.001363   0.000778   0.002086   0.003971   0.023007
   29  C  1 YZ    0.000442   0.000790  -0.001798   0.000186  -0.015410
   30  C  2  S   -0.012812  -0.029770  -0.006139  -0.002861   0.001712
   31  C  2  S   -0.019846  -0.045900  -0.009295  -0.004456   0.002689
   32  C  2  X   -0.048663  -0.050527   0.071555  -0.020696  -0.017140
   33  C  2  Y   -0.092452  -0.075318  -0.038717  -0.011071   0.010520
   34  C  2  Z    0.064781  -0.102547   0.024717   0.004600  -0.006685
   35  C  2  S    0.052082   0.131821   0.026465   0.023801  -0.019194
   36  C  2  X   -0.066813  -0.064423   0.106773  -0.028817  -0.025645
   37  C  2  Y   -0.128336  -0.097536  -0.055037  -0.013702   0.014400
   38  C  2  Z    0.082101  -0.139403   0.033612   0.006456  -0.008937
   39  C  2  S    0.059282   0.095019   0.030482  -0.026041   0.018543
   40  C  2  X   -0.034888  -0.032018   0.076054  -0.035801  -0.005845
   41  C  2  Y   -0.060375  -0.047350  -0.029461  -0.013651   0.014334
   42  C  2  Z    0.040944  -0.062439   0.012235   0.013063  -0.001198
   43  C  2  S    0.015617  -0.018543  -0.040315   0.038609  -0.048839
   44  C  2  X    0.001748  -0.007296  -0.006033   0.013404  -0.021833
   45  C  2  Y   -0.001569  -0.010252  -0.004709  -0.004384   0.002971
   46  C  2  Z    0.008909  -0.004708  -0.001183  -0.005055  -0.001571
   47  C  2 XX    0.001096   0.002887   0.006633   0.000348  -0.001942
   48  C  2 YY   -0.005618  -0.003979  -0.005400   0.000174   0.001625
   49  C  2 ZZ    0.004302   0.003780   0.000121   0.000085  -0.000400
   50  C  2 XY   -0.001599  -0.001769   0.007140   0.000757  -0.002183
   51  C  2 XZ   -0.004109  -0.002359   0.004853  -0.000858  -0.001301
   52  C  2 YZ   -0.004192  -0.013237  -0.001382  -0.001531   0.000076
   53  C  2 XX    0.001523   0.012648   0.013443  -0.000289  -0.001921
   54  C  2 YY   -0.015594   0.005398  -0.011250   0.008314  -0.004131
   55  C  2 ZZ    0.012640   0.001386   0.003198   0.006784  -0.010447
   56  C  2 XY   -0.008578   0.000484   0.009632   0.001023  -0.003490
   57  C  2 XZ    0.000542  -0.001081   0.007938   0.001325  -0.000137
   58  C  2 YZ   -0.000503  -0.011909   0.001856  -0.001535   0.003181
   59  C  3  S   -0.012426   0.029832  -0.006025   0.002638   0.001526
   60  C  3  S   -0.019253   0.046001  -0.009119   0.004126   0.002413
   61  C  3  X    0.051478  -0.054229   0.064286   0.000124  -0.017187
   62  C  3  Y    0.072630  -0.095372  -0.049805  -0.022046   0.012243
   63  C  3  Z    0.085252   0.082209   0.023743  -0.008383  -0.006864
   64  C  3  S    0.050449  -0.132101   0.026011  -0.022739  -0.017577
   65  C  3  X    0.072601  -0.071473   0.093839   0.001533  -0.024730
   66  C  3  Y    0.101512  -0.123718  -0.074832  -0.029904   0.018780
   67  C  3  Z    0.110514   0.112959   0.031792  -0.011322  -0.008957
   68  C  3  S    0.057875  -0.095457   0.029660   0.026151   0.016006
   69  C  3  X    0.032237  -0.033703   0.059504   0.005035  -0.016134
   70  C  3  Y    0.050207  -0.059755  -0.055424  -0.035339   0.000660
   71  C  3  Z    0.054472   0.049391   0.009344  -0.018255  -0.003103
   72  C  3  S    0.014776   0.018284  -0.040241  -0.041137  -0.049352
   73  C  3  X    0.001280  -0.006181   0.001858  -0.011106  -0.011866
   74  C  3  Y   -0.002103  -0.011660   0.007698   0.009991   0.018498
   75  C  3  Z    0.008857   0.002113   0.000118   0.005421  -0.000267
   76  C  3 XX   -0.003174   0.003089  -0.008419   0.000486   0.002500
   77  C  3 YY   -0.002799   0.001965   0.009969  -0.000381  -0.002989
   78  C  3 ZZ    0.005723  -0.007730  -0.000206  -0.000650  -0.000153
   79  C  3 XY   -0.004655   0.006674  -0.001736  -0.000010   0.000451
   80  C  3 XZ    0.000026  -0.008762   0.002231  -0.000853  -0.000267
   81  C  3 YZ    0.003646  -0.006421  -0.002068  -0.001522   0.000685
   82  C  3 XX   -0.005639  -0.004724  -0.012998  -0.005383  -0.000390
   83  C  3 YY   -0.007437  -0.009470   0.016796  -0.002152  -0.004437
   84  C  3 ZZ    0.011571  -0.005257   0.001408  -0.007145  -0.010557
   85  C  3 XY   -0.012363   0.005568  -0.005377  -0.004068  -0.002227
   86  C  3 XZ   -0.003732  -0.009595  -0.000725  -0.002491  -0.002123
   87  C  3 YZ   -0.005527  -0.007325  -0.005867   0.000629  -0.000543
   88  O  4  S   -0.010017   0.000093   0.009803   0.000126  -0.000126
   89  O  4  S   -0.015064   0.000146   0.015212   0.000195  -0.000201
   90  O  4  X   -0.011836   0.083175   0.180857   0.006070  -0.048049
   91  O  4  Y   -0.010425   0.138334  -0.109867   0.009654   0.030022
   92  O  4  Z    0.163425   0.014793   0.006004   0.000693  -0.007695
   93  O  4  S    0.040439  -0.000371  -0.050285  -0.000796  -0.004813
   94  O  4  X   -0.017055   0.124926   0.267625   0.009230  -0.073010
   95  O  4  Y   -0.015456   0.207746  -0.162799   0.014780   0.045407
   96  O  4  Z    0.239977   0.022252   0.011026   0.001157  -0.009866
   97  O  4  S    0.095241  -0.000876  -0.060389  -0.000659   0.010012
   98  O  4  X   -0.011695   0.078449   0.218285   0.005913  -0.058588
   99  O  4  Y   -0.011949   0.130903  -0.133009   0.009237   0.037189
  100  O  4  Z    0.175179   0.013877   0.009442   0.000569  -0.013770
  101  O  4  S   -0.017839   0.000236  -0.020624  -0.000494  -0.007426
  102  O  4  X   -0.003502  -0.005016  -0.008510  -0.000253  -0.007918
  103  O  4  Y    0.001221  -0.008466   0.004112  -0.000252   0.004910
  104  O  4  Z    0.008262  -0.001069   0.010832   0.000257   0.004310
  105  O  4 XX    0.003197   0.001592   0.000208   0.000529  -0.000189
  106  O  4 YY    0.003132  -0.000695  -0.000635  -0.000416  -0.000109
  107  O  4 ZZ   -0.003371  -0.000906  -0.001800  -0.000143   0.000308
  108  O  4 XY   -0.000246   0.001307  -0.000079   0.000377  -0.000200
  109  O  4 XZ    0.001145  -0.002642  -0.003355  -0.000355   0.000924
  110  O  4 YZ    0.000130  -0.004706   0.002194  -0.000712  -0.000641
  111  O  4 XX    0.007935   0.003833   0.003245   0.000894  -0.004319
  112  O  4 YY    0.016199  -0.002132  -0.005816  -0.000849  -0.002418
  113  O  4 ZZ   -0.022858  -0.001644  -0.006255  -0.000399  -0.001521
  114  O  4 XY    0.008528   0.002940  -0.005432   0.000689   0.000891
  115  O  4 XZ    0.005306  -0.005042  -0.018554  -0.000841   0.004333
  116  O  4 YZ    0.002534  -0.009276   0.011050  -0.001585  -0.002751
  117  H  5  S    0.097058   0.052098   0.011303   0.020294  -0.003866
  118  H  5  S    0.136038   0.068130   0.019869   0.025590  -0.000952
  119  H  5  S    0.021081   0.012284   0.014543   0.003442  -0.000362
  120  H  5  X    0.007439   0.002994   0.006244  -0.000075  -0.000646
  121  H  5  Y    0.009340   0.004747  -0.001209   0.002381   0.000713
  122  H  5  Z   -0.007440  -0.008512  -0.000325  -0.001518   0.000101
  123  H  6  S   -0.029586   0.100662  -0.024630   0.000919   0.005360
  124  H  6  S   -0.050060   0.134842  -0.039184   0.006988   0.012010
  125  H  6  S   -0.010593   0.033728  -0.003675   0.002648   0.001968
  126  H  6  X   -0.003813   0.001755   0.003315  -0.000209  -0.000740
  127  H  6  Y   -0.002690  -0.006983  -0.001175  -0.000458   0.000730
  128  H  6  Z   -0.004402   0.013496  -0.004148   0.000658   0.001913
  129  H  7  S   -0.031192  -0.100157  -0.024467  -0.000575   0.005887
  130  H  7  S   -0.052252  -0.134215  -0.039103  -0.006257   0.012794
  131  H  7  S   -0.010960  -0.033637  -0.003553  -0.001915   0.002549
  132  H  7  X    0.001015  -0.005521   0.003007  -0.000236  -0.001218
  133  H  7  Y    0.005280   0.000524  -0.001727  -0.000339   0.000025
  134  H  7  Z   -0.003753  -0.014238  -0.004194  -0.000644   0.001902
  135  H  8  S    0.096825  -0.053098   0.011078  -0.019888  -0.003570
  136  H  8  S    0.135822  -0.069492   0.019526  -0.024741  -0.000550
  137  H  8  S    0.021239  -0.012531   0.014552  -0.002720   0.000005
  138  H  8  X   -0.004011   0.001927   0.003993   0.001933  -0.001009
  139  H  8  Y   -0.009487   0.003466  -0.004850   0.000662   0.000252
  140  H  8  Z   -0.009517   0.009516  -0.000709   0.001829  -0.000007
  141  O  9  S    0.016325  -0.000258  -0.012975   0.000014   0.001301
  142  O  9  S    0.025522  -0.000403  -0.020344   0.000023   0.002027
  143  O  9  X   -0.058328  -0.005779   0.071929   0.133811  -0.063149
  144  O  9  Y    0.037373  -0.011386  -0.054661   0.213893   0.004054
  145  O  9  Z   -0.005961  -0.001236   0.065950   0.031114   0.244034
  146  O  9  S   -0.079877   0.001269   0.065066   0.000012  -0.004075
  147  O  9  X   -0.079818  -0.008708   0.098227   0.196932  -0.092158
  148  O  9  Y    0.051071  -0.016810  -0.075444   0.314765   0.005400
  149  O  9  Z   -0.007597  -0.001855   0.095619   0.045828   0.359997
  150  O  9  S   -0.105983   0.002040   0.089527  -0.000656  -0.024762
  151  O  9  X   -0.045373  -0.007903   0.059083   0.158902  -0.066862
  152  O  9  Y    0.028864  -0.013997  -0.047592   0.253474  -0.000470
  153  O  9  Z   -0.003625  -0.001607   0.072385   0.036959   0.291393
  154  O  9  S   -0.020518   0.000637   0.025665  -0.001129  -0.049695
  155  O  9  X   -0.001753   0.000630   0.008843   0.003816   0.013941
  156  O  9  Y    0.001358   0.000945  -0.004822   0.004998  -0.009804
  157  O  9  Z   -0.001290   0.000113  -0.004829   0.000609   0.005770
  158  O  9 XX    0.000784   0.000375  -0.001378  -0.006650   0.002755
  159  O  9 YY   -0.001186  -0.000384   0.000801   0.006888  -0.000408
  160  O  9 ZZ   -0.002501   0.000055   0.002374  -0.000234  -0.002396
  161  O  9 XY   -0.002510   0.000253   0.003488  -0.003649  -0.001505
  162  O  9 XZ    0.000487   0.000081  -0.002624  -0.001456  -0.006663
  163  O  9 YZ   -0.000320   0.000044   0.001737  -0.000322   0.004474
  164  O  9 XX   -0.001663   0.002213   0.003574  -0.025414   0.009293
  165  O  9 YY   -0.003085  -0.002155   0.003713   0.026326  -0.000777
  166  O  9 ZZ   -0.004597   0.000117   0.004195  -0.000812  -0.007206
  167  O  9 XY   -0.001625   0.001209   0.002495  -0.013904  -0.003111
  168  O  9 XZ   -0.000103   0.000342  -0.006897  -0.005548  -0.026323
  169  O  9 YZ    0.000158   0.000015   0.004576  -0.001126   0.017654

                     16         17         18         19         20
                   -0.4237    -0.3698    -0.3288    -0.2086    -0.0547
                     A          A          A          A          A   
    1  C  1  S    0.000158  -0.035068  -0.062423   0.000713  -0.026476
    2  C  1  S    0.000250  -0.055254  -0.098523   0.001131  -0.042202
    3  C  1  X   -0.005920  -0.085466  -0.136643  -0.023993  -0.031099
    4  C  1  Y   -0.010451   0.055199   0.088601  -0.040789   0.031527
    5  C  1  Z   -0.001607  -0.009928  -0.019687  -0.003981  -0.071420
    6  C  1  S   -0.000807   0.197507   0.331279  -0.003889   0.142499
    7  C  1  X   -0.008039  -0.107308  -0.173191  -0.040280  -0.032695
    8  C  1  Y   -0.014415   0.069345   0.112481  -0.066687   0.038794
    9  C  1  Z   -0.002224  -0.013108  -0.026731  -0.006685  -0.108239
   10  C  1  S   -0.000442   0.128544   0.251465  -0.007099   0.266912
   11  C  1  X   -0.003268  -0.057156  -0.130861  -0.044583  -0.000444
   12  C  1  Y   -0.006160   0.037124   0.085734  -0.070944   0.023589
   13  C  1  Z   -0.001000  -0.008143  -0.026659  -0.007318  -0.139439
   14  C  1  S    0.000018   0.052418   0.100095  -0.006121   0.611738
   15  C  1  X   -0.003980  -0.016793  -0.025837   0.005130  -0.098980
   16  C  1  Y   -0.006547   0.010130   0.016054   0.005280   0.062688
   17  C  1  Z   -0.000868   0.001022  -0.000393   0.000611   0.000716
   18  C  1 XX   -0.002352  -0.003913  -0.005907   0.007892  -0.002980
   19  C  1 YY    0.002456   0.002053   0.003379  -0.007657   0.000749
   20  C  1 ZZ   -0.000119   0.005666   0.009689  -0.000327   0.006865
   21  C  1 XY   -0.001309   0.007359   0.011724   0.004352   0.003297
   22  C  1 XZ   -0.000581   0.000008  -0.001278   0.000173   0.002432
   23  C  1 YZ   -0.000231   0.000074   0.000832  -0.001431  -0.002130
   24  C  1 XX   -0.008363   0.026204   0.024907   0.021072  -0.002542
   25  C  1 YY    0.008587   0.027138   0.033080  -0.020983   0.000498
   26  C  1 ZZ   -0.000414   0.029917   0.038645  -0.001148   0.022933
   27  C  1 XY   -0.004639   0.001479   0.011352   0.012676   0.000285
   28  C  1 XZ   -0.001929   0.000342  -0.003059  -0.000510   0.007875
   29  C  1 YZ   -0.000875  -0.000408   0.002018  -0.005182  -0.007991
   30  C  2  S    0.004369   0.014752   0.005019  -0.014382   0.014454
   31  C  2  S    0.006533   0.021958   0.007424  -0.022720   0.023502
   32  C  2  X   -0.039149   0.000790  -0.008834   0.166093  -0.123480
   33  C  2  Y   -0.111026  -0.004021  -0.005449  -0.074805   0.081793
   34  C  2  Z    0.104013  -0.086877   0.062462  -0.011223   0.041314
   35  C  2  S   -0.025655  -0.068574  -0.022834   0.070537  -0.069789
   36  C  2  X   -0.051966   0.000618  -0.009452   0.248494  -0.179720
   37  C  2  Y   -0.147525  -0.015448  -0.002298  -0.113084   0.120085
   38  C  2  Z    0.138621  -0.118464   0.080626  -0.017825   0.060063
   39  C  2  S    0.011738  -0.038220  -0.027168   0.112693  -0.133226
   40  C  2  X   -0.022996   0.014154   0.005128   0.282219  -0.258458
   41  C  2  Y   -0.081567   0.004260  -0.014927  -0.119109   0.233097
   42  C  2  Z    0.086273  -0.077021   0.055374  -0.023323   0.089109
   43  C  2  S   -0.043306  -0.006388  -0.031665   0.082324  -0.167169
   44  C  2  X   -0.014308   0.001876  -0.012862   0.095545  -0.269473
   45  C  2  Y   -0.016683   0.008041  -0.002646  -0.024810   0.130720
   46  C  2  Z    0.010217  -0.002632   0.011047  -0.013143   0.010392
   47  C  2 XX    0.002580  -0.001703  -0.000237   0.001689   0.003773
   48  C  2 YY    0.001551  -0.011936   0.007313  -0.000523  -0.005493
   49  C  2 ZZ   -0.005435   0.007638  -0.008936   0.000160   0.001196
   50  C  2 XY    0.003745  -0.008898  -0.001875   0.000223   0.004456
   51  C  2 XZ   -0.006824   0.001054  -0.008213   0.001311   0.003666
   52  C  2 YZ   -0.006217  -0.000236   0.000527  -0.000363  -0.001894
   53  C  2 XX    0.000675   0.002363   0.007870   0.002109   0.018777
   54  C  2 YY   -0.003681  -0.014082   0.003292   0.003123  -0.012744
   55  C  2 ZZ   -0.002013   0.013327  -0.012474   0.006185  -0.001090
   56  C  2 XY    0.004290  -0.008071  -0.006384   0.002609   0.006122
   57  C  2 XZ   -0.004068  -0.003587  -0.015139   0.003926   0.010241
   58  C  2 YZ   -0.003161  -0.003147   0.003359  -0.000606   0.001515
   59  C  3  S   -0.004447   0.014714   0.005075   0.014016   0.014465
   60  C  3  S   -0.006649   0.021898   0.007516   0.022149   0.023508
   61  C  3  X   -0.068394   0.012197  -0.008390  -0.144189  -0.135854
   62  C  3  Y   -0.066842   0.015754   0.001883   0.110674   0.066637
   63  C  3  Z   -0.124336  -0.084765   0.062715   0.013999   0.038989
   64  C  3  S    0.026104  -0.068347  -0.023164  -0.068413  -0.071537
   65  C  3  X   -0.090865   0.025043  -0.014593  -0.216959  -0.198876
   66  C  3  Y   -0.088640   0.026399  -0.000965   0.164870   0.096645
   67  C  3  Z   -0.165568  -0.113810   0.080042   0.021877   0.056542
   68  C  3  S   -0.011539  -0.038419  -0.027638  -0.111064  -0.126869
   69  C  3  X   -0.051844   0.010059   0.006521  -0.238712  -0.338832
   70  C  3  Y   -0.042261  -0.001302  -0.004463   0.191439   0.111022
   71  C  3  Z   -0.100297  -0.077613   0.055912   0.029760   0.073089
   72  C  3  S    0.043225  -0.006119  -0.029198  -0.078110  -0.156444
   73  C  3  X   -0.006979  -0.005850  -0.005204  -0.066974  -0.245050
   74  C  3  Y   -0.018375  -0.004754   0.010170   0.069704   0.176723
   75  C  3  Z   -0.014127  -0.004178   0.012331   0.017354   0.013333
   76  C  3 XX    0.001305  -0.003342   0.007613   0.000289  -0.007137
   77  C  3 YY   -0.002218  -0.009394  -0.002307  -0.001604   0.005568
   78  C  3 ZZ    0.002238   0.006725  -0.007184   0.000058   0.000981
   79  C  3 XY   -0.000221  -0.009448   0.002290   0.000960  -0.002125
   80  C  3 XZ   -0.002914  -0.002241  -0.001974  -0.000717   0.002082
   81  C  3 YZ   -0.010417  -0.005150   0.008556   0.000707  -0.001745
   82  C  3 XX    0.005996  -0.004617   0.010375  -0.000536  -0.011394
   83  C  3 YY   -0.001198  -0.007384  -0.001421  -0.004863   0.018079
   84  C  3 ZZ    0.000469   0.013760  -0.010391  -0.005267  -0.004472
   85  C  3 XY    0.000250  -0.012387  -0.005515  -0.001864  -0.011326
   86  C  3 XZ   -0.000342  -0.003145  -0.008371  -0.001884   0.000412
   87  C  3 YZ   -0.005678  -0.000740   0.013569   0.002872  -0.006981
   88  O  4  S   -0.000030  -0.021602   0.011022  -0.000054   0.004408
   89  O  4  S   -0.000045  -0.033277   0.017504  -0.000085   0.006951
   90  O  4  X    0.029491  -0.047312  -0.119421   0.005969   0.136295
   91  O  4  Y    0.048645   0.005514   0.082570   0.008195  -0.082524
   92  O  4  Z    0.005895   0.204305  -0.086350   0.001526  -0.003270
   93  O  4  S    0.000213   0.095511  -0.057721   0.000391  -0.012520
   94  O  4  X    0.044614  -0.069590  -0.177634   0.009260   0.199435
   95  O  4  Y    0.073562   0.008300   0.122392   0.012753  -0.120768
   96  O  4  Z    0.008888   0.299117  -0.124686   0.002294  -0.004695
   97  O  4  S   -0.000007   0.182855  -0.064626   0.000047  -0.111759
   98  O  4  X    0.033627  -0.058160  -0.163285   0.011691   0.222535
   99  O  4  Y    0.055539   0.006870   0.113058   0.017152  -0.136668
  100  O  4  Z    0.006855   0.250516  -0.119259   0.002949   0.012354
  101  O  4  S    0.000079   0.041429   0.002524   0.000285  -0.221551
  102  O  4  X    0.002811  -0.010642  -0.029844  -0.000700   0.198851
  103  O  4  Y    0.004598   0.001167   0.022376  -0.002390  -0.128756
  104  O  4  Z    0.000544   0.046600  -0.038728   0.000129   0.065766
  105  O  4 XX    0.000133   0.003749  -0.001243  -0.005016  -0.000872
  106  O  4 YY    0.000803   0.000552  -0.000062   0.004993   0.001070
  107  O  4 ZZ   -0.000922   0.001234  -0.000556   0.000037  -0.001065
  108  O  4 XY    0.000401  -0.003778   0.000903  -0.003032   0.001904
  109  O  4 XZ   -0.002812   0.000689   0.001156  -0.000460   0.000721
  110  O  4 YZ   -0.004603  -0.000783  -0.000597   0.000483  -0.000038
  111  O  4 XX    0.000384   0.006726  -0.004425  -0.023569   0.002834
  112  O  4 YY    0.002948   0.004644  -0.000869   0.023499   0.008356
  113  O  4 ZZ   -0.003204  -0.011106   0.000542   0.000249   0.000617
  114  O  4 XY    0.001344  -0.003265   0.001763  -0.014244   0.004900
  115  O  4 XZ   -0.009787   0.004195   0.006338  -0.002104   0.003050
  116  O  4 YZ   -0.016001  -0.000706  -0.004028   0.002322  -0.000540
  117  H  5  S    0.123484  -0.063745   0.035432  -0.018370   0.015986
  118  H  5  S    0.181435  -0.102219   0.061674  -0.029812   0.043256
  119  H  5  S    0.067248  -0.040118   0.031651  -0.019333   0.076727
  120  H  5  X    0.009589  -0.005326   0.004172   0.013078  -0.012366
  121  H  5  Y    0.010682  -0.008723   0.004489  -0.009291   0.011296
  122  H  5  Z   -0.006570   0.002157  -0.000643   0.000778   0.001861
  123  H  6  S   -0.093027   0.070268  -0.071994  -0.016642   0.011092
  124  H  6  S   -0.143109   0.104237  -0.108778  -0.033719   0.026066
  125  H  6  S   -0.042598   0.058585  -0.065414  -0.023602   0.096364
  126  H  6  X   -0.005823   0.003535  -0.001890   0.013415  -0.012566
  127  H  6  Y   -0.002274  -0.000666   0.000789  -0.006184   0.010260
  128  H  6  Z   -0.012455   0.005788  -0.007889  -0.005528   0.000066
  129  H  7  S    0.093179   0.070815  -0.070904   0.017006   0.010473
  130  H  7  S    0.143254   0.105090  -0.107118   0.034209   0.025081
  131  H  7  S    0.042731   0.059005  -0.064726   0.024116   0.092423
  132  H  7  X   -0.000634   0.001543  -0.000879  -0.012335  -0.015099
  133  H  7  Y   -0.008082  -0.003714   0.002648   0.008184   0.006589
  134  H  7  Z    0.011343   0.005548  -0.007561   0.005675  -0.000436
  135  H  8  S   -0.123235  -0.063757   0.035461   0.017738   0.015788
  136  H  8  S   -0.181276  -0.102283   0.061689   0.028741   0.043132
  137  H  8  S   -0.067107  -0.040126   0.031533   0.018083   0.075834
  138  H  8  X    0.004277   0.004947  -0.002137  -0.014188  -0.016167
  139  H  8  Y    0.012122   0.008245  -0.005421   0.007550   0.005665
  140  H  8  Z    0.009165   0.004086  -0.001805  -0.001018   0.001153
  141  O  9  S    0.000021   0.002469   0.007541  -0.000080   0.005274
  142  O  9  S    0.000032   0.004027   0.011986  -0.000132   0.008559
  143  O  9  X   -0.015621   0.053301   0.079249   0.042992   0.008771
  144  O  9  Y   -0.024208  -0.035901  -0.052521   0.068852  -0.016241
[...]
  2   C            X  0.11276415  0.01671389  0.14797141 -0.01023801 -0.00342276
                   Y  0.02902767 -0.04029953 -0.03991487  0.00693355  0.09360840
                   Z -0.01457325  0.11067521 -0.02887192  0.01400290 -0.06593041
  3   C            X  0.11034160  0.01887490 -0.10535525 -0.01918774 -0.07664130
                   Y  0.03072131 -0.04347651  0.10713134  0.00926980 -0.02222919
                   Z -0.01643043  0.12749406  0.03281489  0.01050357 -0.07621173
  4   O            X  0.11343240  0.05069800  0.00860850 -0.08859097  0.06937822
                   Y  0.02901640 -0.06799224  0.01019777  0.05623282 -0.05338106
                   Z -0.01494290  0.12958304 -0.00015081 -0.00970899  0.09828542
  5   H            X  0.11568934  0.05045293  0.20606987 -0.08188856 -0.04747267
                   Y  0.02767748 -0.06600138 -0.09391183  0.05143419  0.00461655
                   Z -0.01362796  0.10839430 -0.04397651  0.00634240 -0.22932874
  6   H            X  0.10924004 -0.04018670  0.09561394  0.09540769  0.00683747
                   Y  0.02965460  0.00156586 -0.02646419 -0.06219449  0.34299055
                   Z -0.01368565  0.13006080 -0.01605008 -0.02116261 -0.02999410
  7   H            X  0.10670678 -0.03700236 -0.07106265  0.09482916 -0.30961615
                   Y  0.03142160 -0.00243514  0.07105998 -0.05307253 -0.13782514
                   Z -0.01571409  0.14724979  0.01856488 -0.02408815 -0.07870755
  8   H            X  0.11154288  0.05542616 -0.17886730 -0.09502416 -0.01200227
                   Y  0.03057581 -0.07232608  0.13076980  0.05877959  0.08372306
                   Z -0.01687057  0.13745569  0.04442806  0.00014534 -0.21317672
  9   O            X  0.11231246 -0.00320809 -0.06787051  0.08119866  0.01707527
                   Y  0.03400590 -0.01526417 -0.10505640 -0.03847291 -0.00582287
                   Z -0.02510777 -0.08916664 -0.00583088 -0.13010232 -0.00955637

 TRANS. SAYVETZ    X  8.06814887  1.07901442 -0.00279823  0.00064183  0.00002711
                   Y  2.24024546 -2.60979358 -0.00336059  0.00248120  0.00001809
                   Z -1.33419530  3.86502740 -0.00005990  0.00111880 -0.00001483
               TOTAL  8.47902135  4.78682896  0.00437347  0.00279643  0.00003581

   ROT. SAYVETZ    X  0.44529107 10.56752188  0.51508616 -0.06190248  0.02623047
                   Y  0.76040381 15.94139084 -0.87613230  0.08658736 -0.01211177
                   Z  0.41561870  1.23392400  0.66170245  0.18498472 -0.02342284
               TOTAL  0.97428795 19.16567320  1.21275376  0.21342126  0.03719358

                           11          12          13          14          15
       FREQUENCY:       437.17      544.32      577.93      684.66      736.92  
        SYMMETRY:         A           A           A           A           A   
    REDUCED MASS:      5.87744     2.34310     1.16631     1.54208     1.21260
    IR INTENSITY:      0.90104     0.20356     0.90621     0.12924     1.13597

  1   C            X  0.12385630 -0.02475901 -0.00411578 -0.03798216  0.02401365
                   Y  0.19994118  0.00009633 -0.00492061  0.01731216  0.03722477
                   Z  0.02676309  0.11894648  0.00473829  0.04093097  0.00317705
  2   C            X -0.07016467 -0.06702643 -0.05319160 -0.02932617 -0.04905841
                   Y -0.02029315 -0.01774019  0.05633711 -0.01346095  0.03723021
                   Z  0.01753157 -0.01057440 -0.00191343  0.01806382  0.04062297
  3   C            X  0.00942264 -0.02094223  0.07303476 -0.00462641  0.06572941
                   Y -0.06933928  0.07116750 -0.01521476  0.02892440 -0.02110248
                   Z -0.03451469 -0.00072526  0.00642910  0.02233441 -0.03734327
  4   O            X -0.00035757  0.09642133 -0.00605452  0.10425476 -0.01513487
                   Y -0.01139296 -0.04769097 -0.02048588 -0.05856105 -0.02187486
                   Z  0.00277092 -0.08735717 -0.00671386 -0.04288659 -0.00333959
  5   H            X -0.08758951  0.16271977  0.53175516 -0.37095326  0.04036427
                   Y  0.02495017 -0.07208816 -0.33083683  0.23224501 -0.08063445
                   Z  0.06124835  0.13250302  0.02280658  0.02117292 -0.04212288
  6   H            X -0.18076122 -0.34266937 -0.20419854  0.30968880  0.54449867
                   Y  0.02388732 -0.03753374  0.03425510 -0.14539701 -0.24932242
                   Z  0.04791686  0.04309335  0.03322471 -0.07264285 -0.12673609
  7   H            X  0.08458434 -0.14719985  0.11462429  0.27888929 -0.50737193
                   Y -0.15172487  0.32864913 -0.12346619 -0.19167925  0.36266298
                   Z -0.06777456  0.08732541 -0.03629753 -0.07545455  0.14258706
  8   H            X  0.07083674  0.17637742 -0.52883787 -0.37555727 -0.12076815
                   Y -0.05136276 -0.16429082  0.31471848  0.21861111  0.00717964
                   Z -0.08237352  0.12931649 -0.00981135  0.01882426  0.03553869
  9   O            X -0.03986771 -0.00235029 -0.00028812 -0.04033634 -0.01266535
                   Y -0.06163106  0.00408436 -0.00004971  0.02681478 -0.02067131
                   Z -0.00752953 -0.01811839 -0.00085242 -0.01131983 -0.00208774

 TRANS. SAYVETZ    X  0.00015831 -0.00002602 -0.00005643 -0.00001565 -0.00006186
                   Y  0.00023537 -0.00003535 -0.00019779  0.00019870 -0.00009416
                   Z -0.00005755 -0.00000271  0.00002556 -0.00002252  0.00001059
               TOTAL  0.00028944  0.00004398  0.00020727  0.00020058  0.00011316

   ROT. SAYVETZ    X -0.01901254  0.00145646  0.00206340 -0.00489411  0.00874426
                   Y  0.03332701  0.01067200  0.01549136  0.00882427 -0.00799503
                   Z -0.01323028 -0.01490430  0.00745163 -0.00130614 -0.01463607
               TOTAL  0.04058579  0.01838888  0.01731377  0.01017477  0.01883075

                           16          17          18          19          20
       FREQUENCY:       801.77     1117.06     1154.78     1275.80     1379.01  
        SYMMETRY:         A           A           A           A           A   
    REDUCED MASS:      1.15759     3.12746     1.23910     1.61568     6.01702
    IR INTENSITY:      1.36897     0.32386     0.13411     0.69725     0.63924

  1   C            X -0.01325419  0.00036069  0.00204739  0.00082375 -0.00580822
                   Y  0.00763427 -0.00071550  0.00313616 -0.00007834 -0.00895585
                   Z  0.01095926  0.00389290  0.00043755 -0.00295552 -0.00100430
  2   C            X -0.05232740 -0.07747755  0.00591746  0.00136306 -0.06058334
                   Y  0.05227748 -0.13312523 -0.01631251  0.02499865 -0.09131670
                   Z  0.01060524 -0.05215127  0.08696295 -0.08558203 -0.05024042
  3   C            X -0.06642417  0.08616430 -0.00509704 -0.01267097 -0.05791570
                   Y  0.02028648  0.13476951  0.01690752  0.00076900 -0.10287160
                   Z  0.00315122 -0.01778901 -0.08990791 -0.08687595  0.02874899
  4   O            X  0.01569546 -0.01138492 -0.01191835 -0.00144916  0.09545445
                   Y -0.01178217 -0.00117927 -0.01933353 -0.01141970  0.15667543
                   Z  0.00579430  0.08175155  0.00040123  0.11587766  0.01726136
  5   H            X  0.37703522 -0.13334647 -0.11608095  0.06420715  0.03599907
                   Y -0.27815244 -0.23240959 -0.23741679  0.22291308 -0.17463921
                   Z -0.05096467 -0.21924261 -0.30990390  0.22797296 -0.08137681
  6   H            X  0.42258480 -0.01164856  0.11512145 -0.12364880  0.09392892
                   Y -0.19209436 -0.05509858  0.44243792 -0.40344054  0.02908335
                   Z -0.11717278 -0.05714474  0.14048989 -0.12717651 -0.06097993
  7   H            X  0.34724243  0.03761671  0.35246191  0.30124088 -0.02709252
                   Y -0.24358394  0.03208700  0.33046414  0.30696516  0.08152985
                   Z -0.11516452 -0.04337967 -0.05426599 -0.04340521  0.07352958
  8   H            X  0.40933443  0.17054204 -0.18477650 -0.18765831 -0.17683239
                   Y -0.19689553  0.26646112 -0.25100071 -0.19006321 -0.06194850
                   Z -0.03915973 -0.17278702  0.24919282  0.17733303  0.05575260
  9   O            X -0.01471574  0.00061991 -0.00073928  0.00590392  0.00247112
                   Y  0.00900098 -0.00021270 -0.00139178 -0.00384392  0.00367360
                   Z -0.00402480 -0.00115890 -0.00012708  0.00093623  0.00043935

 TRANS. SAYVETZ    X -0.00002441  0.00004185 -0.00001342  0.00000821  0.00004766
                   Y  0.00004113  0.00000722 -0.00001481  0.00000800  0.00007806
                   Z -0.00009335  0.00009537  0.00000868  0.00002656 -0.00000443
               TOTAL  0.00010489  0.00010439  0.00002179  0.00002893  0.00009157

   ROT. SAYVETZ    X -0.01828797  0.00066294 -0.00162470  0.00094241 -0.00625913
                   Y  0.01108655 -0.00122125  0.00241266  0.00034256  0.00532796
                   Z  0.00811952 -0.00207724 -0.00065613  0.00306782 -0.00361973
               TOTAL  0.02287549  0.00249917  0.00298179  0.00322754  0.00898144

                           21          22          23          24          25
       FREQUENCY:      1485.19     1534.27     2079.00     3130.61     3139.03  
        SYMMETRY:         A           A           A           A           A   
    REDUCED MASS:      1.07636     1.20096    13.28998     1.04298     1.04843
    IR INTENSITY:      0.09851     0.05243    11.90695     0.00143     0.16120

  1   C            X -0.00054845 -0.00047779  0.18085214 -0.00003741 -0.00000185
                   Y -0.00085424 -0.00002522 -0.11689937 -0.00006874 -0.00009455
                   Z -0.00012614  0.00277070  0.02794617  0.00006813  0.00094230
  2   C            X -0.01952154 -0.03245868  0.00494210 -0.02657456 -0.02356540
                   Y -0.03421969 -0.06395689  0.00023087 -0.01912349 -0.01852726
                   Z -0.02463603 -0.04464343 -0.00302812 -0.02623340 -0.02530890
  3   C            X -0.02521795  0.04502971  0.00211560 -0.00620723  0.00910152
                   Y -0.03906418  0.06352317 -0.00394865 -0.03124076  0.03769539
                   Z  0.01747387 -0.02960917 -0.00333739  0.01706114 -0.02185515
  4   O            X -0.01502935 -0.01228366 -0.00352492 -0.00030467 -0.00100732
                   Y -0.02488546  0.00469731  0.00190084 -0.00032652  0.00060332
                   Z -0.00306480  0.01486794  0.00402915 -0.00002016  0.00026485
  5   H            X  0.16985519  0.16003844  0.01296736  0.21413604  0.18029008
                   Y  0.17589258  0.15406138 -0.00210067  0.32077099  0.26845567
                   Z  0.41373991  0.41745024 -0.00237006 -0.24887996 -0.20584467
  6   H            X  0.24350077  0.23402108 -0.01795785  0.10847686  0.09425151
                   Y  0.39513605  0.38158513  0.00031468 -0.09420412 -0.07511351
                   Z -0.00031395 -0.02794875 -0.00070683  0.55819729  0.49856457
  7   H            X  0.24088502 -0.21410929 -0.00829196 -0.06604180  0.06701530
                   Y  0.40497563 -0.35819951  0.01576309  0.12408896 -0.14793746
                   Z  0.09403572 -0.11084713  0.00105362 -0.48028779  0.56277202
  8   H            X  0.12332684 -0.10065229  0.00793651  0.13887174 -0.15296229
                   Y  0.30380458 -0.26624271 -0.01005321  0.25448568 -0.28261658
                   Z -0.37255965  0.35491504 -0.00320921  0.27987496 -0.30641043
  9   O            X  0.00001190 -0.00178565 -0.13710999  0.00000905 -0.00002459
                   Y -0.00013268  0.00124245  0.08834791  0.00003180  0.00003208
                   Z  0.00003317 -0.00115926 -0.01987752 -0.00001149 -0.00018833

 TRANS. SAYVETZ    X -0.00000563 -0.00000005  0.00008755 -0.00002167 -0.00002378
                   Y  0.00000316  0.00000828  0.00006944 -0.00003307 -0.00002192
                   Z  0.00000735  0.00001344  0.00020135  0.00000079 -0.00005899
               TOTAL  0.00000978  0.00001578  0.00023028  0.00003955  0.00006728

   ROT. SAYVETZ    X  0.00056050 -0.00225835  0.00011233  0.00008874 -0.00014801
                   Y  0.00283301  0.00022873  0.00028475  0.00028563 -0.00017333
                   Z  0.00071714  0.00163351  0.00023167 -0.00002358 -0.00008833
               TOTAL  0.00297563  0.00279657  0.00038389  0.00030002  0.00024444

                           26          27
       FREQUENCY:      3265.84     3267.73  
        SYMMETRY:         A           A   
    REDUCED MASS:      1.12542     1.12560
    IR INTENSITY:      0.09412     0.08737

  1   C            X  0.00068955  0.00072697
                   Y -0.00052035 -0.00042302
                   Z  0.00034509  0.00033684
  2   C            X  0.02055688  0.00055391
                   Y  0.05209426  0.00104956
                   Z -0.07976297  0.00168626
  3   C            X -0.00139462 -0.02806686
                   Y -0.00182887 -0.02817264
                   Z -0.00032269 -0.08906175
  4   O            X  0.00057940 -0.00005202
                   Y  0.00032571 -0.00067782
                   Z  0.00016155  0.00003876
  5   H            X -0.36416634  0.00098422
                   Y -0.51810623 -0.00055226
                   Z  0.39597840  0.00070881
  6   H            X  0.11807690 -0.00266586
                   Y -0.09052473  0.00527258
                   Z  0.54661733 -0.01533211
  7   H            X -0.00290594  0.07709943
                   Y -0.00039311 -0.15191206
                   Z -0.00549609  0.54214189
  8   H            X  0.00586535  0.24736441
                   Y  0.00914603  0.48467667
                   Z  0.01101300  0.50949042
  9   O            X -0.00015387 -0.00019082
                   Y  0.00015179  0.00007929
                   Z -0.00007769 -0.00008078

 TRANS. SAYVETZ    X -0.00000449 -0.00000795
                   Y  0.00000587 -0.00000089
                   Z -0.00001374 -0.00001218
               TOTAL  0.00001560  0.00001457

   ROT. SAYVETZ    X  0.00125318 -0.00116847
                   Y -0.00060639  0.00051896
                   Z  0.00011472 -0.00037505
               TOTAL  0.00139690  0.00133240

 REFERENCE ON SAYVETZ CONDITIONS - A. SAYVETZ, J.CHEM.PHYS., 7, 383-389(1939).

 NOTE - THE MODES J,K ARE ORTHONORMALIZED ACCORDING TO
 SUM ON I   M(I) * (X(I,J)*X(I,K) + Y(I,J)*Y(I,K) + Z(I,J)*Z(I,K)) = DELTA(J,K)

  MODE FREQ(CM**-1)  SYMMETRY  RED. MASS  IR INTENS.
     1     207.168    A        8.737573    0.068595
     2       6.421    A        2.928510    0.013023
     3       4.024    A        6.674131    0.016140
     4       0.616    A       11.112629    0.006908
     5       0.262    A        7.818637    0.000107
     6       0.103    A        8.129046    0.000044
     7       1.013    A        6.548099    0.015102
     8      64.874    A        5.197469    0.000479
     9     100.054    A        8.696168    0.028470
    10     428.429    A        2.529199    0.145094
    11     437.167    A        5.877436    0.901042
    12     544.317    A        2.343105    0.203561
    13     577.927    A        1.166311    0.906212
    14     684.655    A        1.542085    0.129238
    15     736.916    A        1.212598    1.135966
    16     801.775    A        1.157592    1.368975
    17    1117.060    A        3.127462    0.323858
    18    1154.776    A        1.239101    0.134112
    19    1275.798    A        1.615677    0.697253
    20    1379.010    A        6.017017    0.639241
    21    1485.193    A        1.076359    0.098515
    22    1534.268    A        1.200958    0.052427
    23    2078.996    A       13.289981   11.906947
    24    3130.614    A        1.042975    0.001426
    25    3139.031    A        1.048431    0.161202
    26    3265.840    A        1.125415    0.094117
    27    3267.728    A        1.125605    0.087375

     -------------------------------
     THERMOCHEMISTRY AT T=  298.15 K
     -------------------------------

 USING IDEAL GAS, RIGID ROTOR, HARMONIC NORMAL MODE APPROXIMATIONS.
 P=  1.01325E+05 PASCAL.
 ALL FREQUENCIES ARE SCALED BY   1.00000
 THE MOMENTS OF INERTIA ARE (IN AMU*BOHR**2)
            182.02297           540.07260           665.85378
 THE ROTATIONAL SYMMETRY NUMBER IS  1.0
 THE ROTATIONAL CONSTANTS ARE (IN GHZ)
      9.90583     3.33860     2.70793
   1 IMAGINARY FREQUENCY VIBRATION(S) IS(ARE) EXCLUDED
     FROM THE FOLLOWING THERMOCHEMICAL ANALYSIS.
      8 -     27 VIBRATIONAL MODES ARE USED IN THERMOCHEMISTRY.
 THE HARMONIC ZERO POINT ENERGY IS (SCALED BY   1.000)
        0.061976 HARTREE/MOLECULE    13602.214706 CM**-1/MOLECULE 
       38.890722 KCAL/MOL              162.718783 KJ/MOL

               Q               LN Q
 ELEC.     1.00000E+00       0.000000
 TRANS.    2.40239E+07      16.994560
 ROT.      9.15841E+04      11.425013
 VIB.      1.60768E+01       2.777378
 TOT.      3.53723E+13      31.196951

              E         H         G         CV        CP        S
           KJ/MOL    KJ/MOL    KJ/MOL   J/MOL-K   J/MOL-K   J/MOL-K
 ELEC.      0.000     0.000     0.000     0.000     0.000     0.000
 TRANS.     3.718     6.197   -42.129    12.472    20.786   162.086
 ROT.       3.718     3.718   -28.322    12.472    12.472   107.464
 VIB.     170.153   170.153   155.834    50.819    50.819    48.025
 TOTAL    177.589   180.068    85.383    75.762    84.077   317.575
 VIB. THERMAL CORRECTION E(T)-E(0) = H(T)-H(0) =      7433.732 J/MOL

              E         H         G         CV        CP        S
         KCAL/MOL  KCAL/MOL  KCAL/MOL CAL/MOL-K CAL/MOL-K CAL/MOL-K
 ELEC.      0.000     0.000     0.000     0.000     0.000     0.000
 TRANS.     0.889     1.481   -10.069     2.981     4.968    38.739
 ROT.       0.889     0.889    -6.769     2.981     2.981    25.684
 VIB.      40.667    40.667    37.245    12.146    12.146    11.478
 TOTAL     42.445    43.037    20.407    18.108    20.095    75.902
 VIB. THERMAL CORRECTION E(T)-E(0) = H(T)-H(0) =      1776.705 CAL/MOL
 ......END OF NORMAL COORDINATE ANALYSIS......
 CPU     0: STEP CPU TIME=     0.00 TOTAL CPU TIME=       1370.1 (     22.8 MIN)
 TOTAL WALL CLOCK TIME=       1417.1 SECONDS, CPU UTILIZATION IS    96.68%
              1159631  WORDS OF DYNAMIC MEMORY USED
 EXECUTION OF GAMESS TERMINATED NORMALLY Sat Oct  8 17:01:30 2022
 DDI: 263640 bytes (0.3 MB / 0 MWords) used by master data server.
Note: The following floating-point exceptions are signalling: IEEE_UNDERFLOW_FLAG IEEE_DENORMAL
Note: The following floating-point exceptions are signalling: IEEE_UNDERFLOW_FLAG IEEE_DENORMAL
Note: The following floating-point exceptions are signalling: IEEE_UNDERFLOW_FLAG IEEE_DENORMAL

 ----------------------------------------
 CPU timing information for all processes
 ========================================
 0: 1345.324 + 24.793 = 1370.117
 1: 1344.224 + 23.531 = 1367.756
 2: 1344.517 + 23.506 = 1368.23
 3: 1344.425 + 22.724 = 1367.150
 4: 7.177 + 72.138 = 79.315
 5: 0.02 + 0.03 = 0.05
 6: 0.02 + 0.03 = 0.05
 7: 0.02 + 0.03 = 0.05
 ----------------------------------------
Note: The following floating-point exceptions are signalling: IEEE_UNDERFLOW_FLAG IEEE_DENORMAL
 ddikick.x: exited gracefully.
unset echo
----- accounting info -----
Files used on the master node Samuels-MBP.attlocal.net were:
-rw-r--r-- 1 Sammy staff   64868 Oct  8 16:37 /Users/Sammy/gamess/scratch/oxetanone_dft_sadpoint.F05
-rw-r--r-- 1 Sammy staff 4908000 Oct  8 17:01 /Users/Sammy/gamess/scratch/oxetanone_dft_sadpoint.F10
-rw-r--r-- 1 Sammy staff 2537768 Oct  8 17:01 /Users/Sammy/gamess/scratch/oxetanone_dft_sadpoint.F22
-rw-r--r-- 1 Sammy staff 2537768 Oct  8 17:01 /Users/Sammy/gamess/scratch/oxetanone_dft_sadpoint.F22.001
-rw-r--r-- 1 Sammy staff 2537768 Oct  8 17:01 /Users/Sammy/gamess/scratch/oxetanone_dft_sadpoint.F22.002
-rw-r--r-- 1 Sammy staff 2537768 Oct  8 17:01 /Users/Sammy/gamess/scratch/oxetanone_dft_sadpoint.F22.003
ls: No match.
ls: No match.
ls: No match.
Sat Oct  8 17:01:34 CDT 2022
1352.621u 97.044s 23:40.45 102.0%	0+0k 0+0io 486pf+0w
