----- GAMESS execution script 'rungms' -----
This job is running on host Samuels-MBP.attlocal.net
under operating system Darwin at Sat Oct 22 18:08:52 CDT 2022
Available scratch disk space (Kbyte units) at beginning of the job is
Filesystem     1K-blocks      Used Available Use% Mounted on
/dev/disk1s5s1 244912536 151470316  74049908  68% /
GAMESS temporary binary files will be written to /Users/Sammy/gamess/scratch
GAMESS supplementary output files will be written to /Users/Sammy/gamess/
Copying input file input_files/boc-3-azetidinone/boc_azomethine_ylide_tddft_s_states_mecn.inp to your run's scratch directory...
cp input_files/boc-3-azetidinone/boc_azomethine_ylide_tddft_s_states_mecn.inp /Users/Sammy/gamess/scratch/boc_azomethine_ylide_tddft_s_states_mecn.F05
unset echo
 
Assuming a single but multicore node.
 
/Users/Sammy/gamess//ddikick.x /Users/Sammy/gamess//gamess.30Jun2020R1.x boc_azomethine_ylide_tddft_s_states_mecn -ddi 6 6 localhost localhost localhost localhost localhost localhost -scr /Users/Sammy/gamess/scratch

 Distributed Data Interface kickoff program.
 Initiating 6 compute processes on 6 nodes to run the following command:
 /Users/Sammy/gamess//gamess.30Jun2020R1.x boc_azomethine_ylide_tddft_s_states_mecn 

          *******************************************************
          *                                                     *
          *          GAMESS VERSION = 30 JUN 2020 (R1)          *
          *                                                     *
          *              doi.org/10.1063/5.0005188              *
          *                                                     *
          **************** 64 BIT APPLE VERSION *****************

  GAMESS HAS BEEN MADE POSSIBLE WITH IMPORTANT CONTRIBUTIONS FROM
  THE FOLLOWING INDIVIDUALS (IN ALPHABETICAL ORDER):

     IVANA ADAMOVIC, CHRISTINE AIKENS, TOMOKO AKAMA,
     YURI ALEXEEV, YURIKO AOKI, POOJA ARORA, TOSHIO ASADA,
     ANDREY ASADCHEV, KIM K. BALDRIDGE, PRADIPTA BANDYOPADHYAY,
     MARIA BARYSZ, ROB BELL, JONATHAN BENTZ, COLLEEN BERTONI,
     JERRY A. BOATZ, BRETT BODE, KURT BRORSEN, KURT R. BRORSEN,
     LAIMUTIS BYTAUTAS, CALEB CARLIN, LAURA CARRINGTON,
     GALINA CHABAN, BENOIT CHAMPAGNE, WEI CHEN, MAHITO CHIBA,
     DAN CHIPMAN, CHEOL HO CHOI, TANNER CULPITT, PAUL DAY,
     ALBERT DEFUSCO, NUWAN DESILVA, J. EMILIANO DEUSTUA,
     TIM DUDLEY, MICHEL DUPUIS, STEVEN T. ELBERT,
     DMITRI FEDOROV, ALEX FINDLATER, GRAHAM FLETCHER,
     MARK FREITAG, CHRISTIAN FRIEDL, DAVID GARMER,
     IGOR S. GERASIMOV, KURT GLAESEMANN, MARK S. GORDON,
     JEFFREY GOUR, FENG LONG GU, EMILIE B. GUIDEZ,
     ANASTASIA GUNINA, SHARON HAMMES-SCHIFFER, MASATAKE HARUTA,
     KIMIHIKO HIRAO, YASUHIRO IKABATA, TZVETELIN IORDANOV,
     STEPHAN IRLE, KAZUYA ISHIMURA, JOE IVANIC, FRANK JENSEN,
     JAN H. JENSEN, VISVALDAS KAIRYS, MUNEAKI KAMIYA,
     MICHIO KATOUDA, NAOAKI KAWAKAMI, DAN KEMP, BERNARD KIRTMAN,
     KAZUO KITAURA, MARIUSZ KLOBUKOWSKI, MASATO KOBAYASHI,
     PRAKASHAN KORAMBATH, JACEK KORCHOWIEC, SHIRO KOSEKI,
     KAROL KOWALSKI, JIMMY KROMANN, STANISLAW KUCHARSKI,
     HENRY KURTZ, SAROM SOK LEANG, HUI LI, SHUHUA LI, WEI LI,
     JESSE LUTZ, ALEKSANDR O. LYKHIN, MARCIN MAKOWSKI,
     JOANI MATO, NIKITA MATSUNAGA, BENEDETTA MENNUCCI,
     GRANT MERRILL, NORIYUKI MINEZAWA, VLADIMIR MIRONOV,
     EISAKU MIYOSHI, JOHN A. MONTGOMERY JR., HIROTOSHI MORI,
     JONATHAN MULLIN, MONIKA MUSIAL, SHIGERU NAGASE,
     TAKESHI NAGATA, HIROMI NAKAI, TAKAHITO NAKAJIMA,
     YUYA NAKAJIMA, HARUYUKI NAKANO, HIROYA NAKATA, SEAN NEDD,
     HEATHER NETZLOFF, KIET A. NGUYEN, YOSHIO NISHIMOTO,
     BOSILJKA NJEGIC, RYAN OLSON, MIKE PAK, ROBERTO PEVERATI,
     BUU PHAM, PIOTR PIECUCH, ANNA POMOGAEVA, DAVID POOLE,
     SPENCER PRUITT, OLIVIER QUINET, LUKE ROSKOP,
     KLAUS RUEDENBERG, ANDREW SAND, TOSAPORN SATTASATHUCHANA,
     NOZOMI SAWADA, MICHAEL W. SCHMIDT, PATRICK E. SCHNEIDER,
     JUNJI SEINO, PRACHI SHARMA, JUN SHEN, JIM SHOEMAKER,
     YINAN SHU, DEJUN SI, JONATHAN SKONE, LYUDMILA SLIPCHENKO,
     TONY SMITH, JIE SONG, MARK SPACKMAN, CASPER STEINMANN,
     WALT STEVENS, PEIFENG SU, SHUJUN SU, CHET SWALINA,
     TETSUYA TAKETSUGU, ZHEN TAO, NANDUN THELLAMUREGE
     SEIKEN TOKURA, JACOPO TOMASI, TSUGUKI TOUMA, TAKAO TSUNEDA,
     HIROAKI UMEDA, JORGE LUIS GALVEZ VALLEJO, YALI WANG,
     SIMON WEBB, AARON WEST, THERESA L. WINDUS, MARTA WLOCH,
     PENG XU, KIYOSHI YAGI, SUSUMU YANAGISAWA, YANG YANG,
     SOOHAENG YOO, TAKESHI YOSHIKAWA, FEDERICO ZAHARIEV,
     TOBY ZENG

  WHO ARE SUPPORTED BY THEIR INSTITUTION/UNIVERSITY/COMPANY/GROUP
  (IN ALPHABETICAL ORDER):

     EP ANALYTICS, FACULTES UNIVERSITAIRES NOTRE-DAME DE LA PAIX,
     INSTITUTE FOR MOLECULAR SCIENCE, IOWA STATE UNIVERSITY,
     JACKSON STATE UNIVERSITY, JOHANNES KEPLER UNIVERSITY LINZ,
     KYUSHU UNIVERSITY, MICHIGAN STATE UNIVERSITY,
     MIE UNIVERSITY, MOSCOW STATE UNIVERSITY,
     N. COPERNICUS UNIVERSITY, NAGOYA UNIVERSITY,
     NANJING UNIVERSITY, NAT. INST. OF ADVANCED INDUSTRIAL
     SCIENCE AND TECHNOLOGY, NATIONAL INST. OF STANDARDS AND
     TECHNOLOGY, NESMEYANOV INSTITUTE OF ORGANOELEMENT COMPOUNDS
     OF RUSSIAN ACADEMY OF SCIENCES, OSAKA PREFECTURE UNIVERSITY,
     PENNSYLVANIA STATE UNIVERSITY, TOKYO INSTITUTE OF TECHNOLOGY,
     UNIVERSITY OF AARHUS, UNIVERSITY OF ALBERTA,
     UNIVERSITY OF CALIFORNIA AT SANTA BARBARA,
     UNIVERSITY OF COPENHAGEN, UNIVERSITY OF IOWA,
     UNIVERSITY OF MEMPHIS, UNIVERSITY OF MINNESOTA,
     UNIVERSITY OF NEBRASKA, UNIVERSITY OF NEW ENGLAND,
     UNIVERSITY OF NOTRE DAME, UNIVERSITY OF PISA,
     UNIVERSITY OF SILESIA, UNIVERSITY OF TOKYO,
     UNIVERSITY OF ZURICH, WASEDA UNIVERSITY, YALE UNIVERSITY

  GAMESS SOFTWARE MANAGEMENT TEAM FOR THIS RELEASE:

     MARK S. GORDON (TEAM LEAD),
     BRETT BODE (SENIOR ADVISOR),
     GIUSEPPE BARCA,
     COLLEEN BERTONI,
     KRISTOPHER KEIPERT (ADVISOR),
     SAROM S. LEANG (DEVELOPMENT LEAD),
     BUU PHAM,
     JORGE LUIS GALVEZ VALLEJO (WEBSITE ADMINISTRATOR),
     PENG XU


 PARALLEL VERSION RUNNING ON        6 PROCESSORS IN        6 NODES.

 EXECUTION OF GAMESS BEGUN Sat Oct 22 18:08:52 2022

            ECHO OF THE FIRST FEW INPUT CARDS -
 INPUT CARD>!   File created by MacMolPlt 7.7                                               
 INPUT CARD> $CONTRL SCFTYP=RHF RUNTYP=ENERGY EXETYP=RUN                                    
 INPUT CARD> DFTTYP=B3LYP TDDFT=EXCITE $END                                                 
 INPUT CARD> $SYSTEM TIMLIM=525600 MEMORY=200000000 $END                                    
 INPUT CARD> $TDDFT NSTATE=20 MULT=1 IROOT=1 TAMMD=.FALSE. $END                             
 INPUT CARD> $BASIS GBASIS=N311 NGAUSS=6 NDFUNC=2 NPFUNC=1 DIFFSP=.TRUE. $END               
 INPUT CARD> $GUESS GUESS=MOREAD NORB=39 $END                                               
 INPUT CARD> $SCF DIRSCF=.TRUE. $END                                                        
 INPUT CARD> $PCM SMD=.TRUE. SOLVNT=ACETNTRL $END                                           
 INPUT CARD> $DATA                                                                          
 INPUT CARD>Title                                                                           
 INPUT CARD>C1                                                                              
 INPUT CARD>C     6.0     2.27716    -1.24529     0.12555                                   
 INPUT CARD>C     6.0     1.70839     0.94670    -0.72008                                   
 INPUT CARD>N     7.0     1.43328    -0.28916    -0.28321                                   
 INPUT CARD>H     1.0     1.87497    -2.20595     0.38989                                   
 INPUT CARD>H     1.0     3.33652    -1.04365     0.09137                                   
 INPUT CARD>H     1.0     0.89967     1.59811    -0.99251                                   
 INPUT CARD>H     1.0     2.74112     1.25867    -0.75045                                   
 INPUT CARD>C     6.0     0.00271    -0.69493    -0.26666                                   
 INPUT CARD>O     8.0    -0.31880    -1.80825    -0.57243                                   
 INPUT CARD>O     8.0    -0.74104     0.30699     0.12413                                   
 INPUT CARD>C     6.0    -2.24931     0.21266     0.15015                                   
 INPUT CARD>C     6.0    -2.64648     1.62369     0.56114                                   
 INPUT CARD>C     6.0    -2.65888    -0.81069     1.20144                                   
 INPUT CARD>C     6.0    -2.75773    -0.12011    -1.24723                                   
 INPUT CARD>H     1.0    -2.31058     2.35625    -0.17557                                   
 INPUT CARD>H     1.0    -2.22224     1.88554     1.53275                                   
 INPUT CARD>H     1.0    -3.73377     1.68844     0.63611                                   
 INPUT CARD>H     1.0    -3.74655    -0.79696     1.30481                                   
 INPUT CARD>H     1.0    -2.22660    -0.56203     2.17337                                   
 INPUT CARD>H     1.0    -2.35823    -1.82107     0.92772                                   
 INPUT CARD>H     1.0    -3.84626    -0.02716    -1.25691                                   
 INPUT CARD>H     1.0    -2.50257    -1.13528    -1.54560                                   
 INPUT CARD>H     1.0    -2.35648     0.57976    -1.98396                                   
 INPUT CARD> $END                                                                           
 INPUT CARD> $VEC                                                                           
 INPUT CARD> 1  1 9.99999997E-07-3.00000011E-06-6.00000021E-06-2.30000005E-05 4.09999993E-05
 INPUT CARD> 1  2 6.93999988E-04-1.04999999E-04 2.14999993E-04-2.57000007E-04-9.94000002E-04
 INPUT CARD> 1  3 4.19999997E-04 5.15000022E-04-3.45000008E-04 1.56500004E-03-4.29000007E-04
 INPUT CARD> 1  4 1.02999998E-04-2.01999996E-04 1.29999999E-05 3.40000006E-05 1.40000002E-05
 INPUT CARD> 1  5 7.00000010E-06 4.89999984E-05-6.00000021E-06-1.49999996E-05 4.72000014E-04
 INPUT CARD> 1  6 4.64000012E-04-8.90000010E-05-8.49999997E-05-3.57000012E-04 3.00000011E-06
 INPUT CARD> 1  7-1.20000004E-05 3.40000006E-05-1.70000003E-05-1.99999999E-06-6.18999999E-04
 INPUT CARD> 1  8-3.96999996E-04 2.14000000E-04-1.99999999E-06 1.61200005E-03-2.26000004E-04
 INPUT CARD> 1  9-2.64000002E-04-2.50000012E-04 1.92000007E-04 5.87999995E-04-2.46000011E-04
 INPUT CARD> 1 10 1.40000002E-05 6.09999988E-05-7.40000032E-05 1.40000002E-05 9.00000032E-06
 INPUT CARD> 1 11-3.40000006E-05-3.99999990E-05-5.44000010E-04-1.95000001E-04-3.88999993E-04
 INPUT CARD> 1 12-2.97999999E-04 1.30000000E-04 1.32999994E-04-3.99999999E-06 1.40000002E-05
 INPUT CARD> 1 13-4.09999993E-05 2.80000004E-05 4.89999984E-05 6.80000012E-05-3.09999996E-05
  200000000 WORDS OF MEMORY AVAILABLE

     BASIS OPTIONS
     -------------
     GBASIS=N311         IGAUSS=       6      POLAR=POPN311 
     NDFUNC=       2     NFFUNC=       0     DIFFSP=       T
     NPFUNC=       1      DIFFS=       F     BASNAM=        
     SPLIT2=     2.00000000     0.50000000


     RUN TITLE
     ---------
 Title                                                                           

 THE POINT GROUP OF THE MOLECULE IS C1      
 THE ORDER OF THE PRINCIPAL AXIS IS     0

 ATOM      ATOMIC                      COORDINATES (BOHR)
           CHARGE         X                   Y                   Z
 C           6.0     4.3032084302       -2.3532568753        0.2372550978
 C           6.0     3.2283889802        1.7890035926       -1.3607538892
 N           7.0     2.7085064637       -0.5464331666       -0.5351892970
 H           1.0     3.5431795352       -4.1686410426        0.7367852654
 H           1.0     6.3051085526       -1.9722125271        0.1726642635
 H           1.0     1.7001297794        3.0199899982       -1.8755719401
 H           1.0     5.1799656995        2.3785414090       -1.4181448675
 C           6.0     0.0051211574       -1.3132272806       -0.5039143319
 O           8.0    -0.6024446449       -3.4170970173       -1.0817358472
 O           8.0    -1.4003625459        0.5801269810        0.2345716869
 C           6.0    -4.2505795614        0.4018691285        0.2837423571
 C           6.0    -5.0011220320        3.0683291890        1.0604008408
 C           6.0    -5.0245546342       -1.5319819610        2.2703923907
 C           6.0    -5.2113540481       -0.2269749884       -2.3569229437
 H           1.0    -4.3663630727        4.4526668586       -0.3317791917
 H           1.0    -4.1994246790        3.5631539389        2.8964775077
 H           1.0    -7.0558022012        3.1906889467        1.2020735980
 H           1.0    -7.0799528993       -1.5060360232        2.4657333660
 H           1.0    -4.2076638843       -1.0620826969        4.1070737699
 H           1.0    -4.4564085160       -3.4413233045        1.7531365933
 H           1.0    -7.2683774775       -0.0513249578       -2.3752154912
 H           1.0    -4.7291715651       -2.1453681193       -2.9207604866
 H           1.0    -4.4531014955        1.0955875386       -3.7491407706

          INTERNUCLEAR DISTANCES (ANGS.)
          ------------------------------

                1 C          2 C          3 N          4 H          5 H     

   1 C       0.0000000    2.4173145 *  1.3391799 *  1.0744766 *  1.0789210 *
   2 C       2.4173145 *  0.0000000    1.3393621 *  3.3464884    2.6964331 *
   3 N       1.3391799 *  1.3393621 *  0.0000000    2.0789992 *  2.0813188 *
   4 H       1.0744766 *  3.3464884    2.0789992 *  0.0000000    1.8910801 *
   5 H       1.0789210 *  2.6964331 *  2.0813188 *  1.8910801 *  0.0000000  
   6 H       3.3514863    1.0735833 *  2.0855777 *  4.1633055    3.7539219  
   7 H       2.6930374 *  1.0792492 *  2.0795520 *  3.7488909    2.5226651 *
   8 C       2.3727300 *  2.4103699 *  1.4870957 *  2.4939120 *  3.3710651  
   9 O       2.7464720 *  3.4236018    2.3368926 *  2.4283434 *  3.7929682  
  10 O       3.3939809    2.6686376 *  2.2910670 *  3.6371698    4.2955555  
  11 C       4.7555393    4.1181919    3.7418035    4.7871531    5.7256674  
  12 C       5.7151567    4.5896332    4.5843608    5.9278140    6.5674710  
  13 C       5.0705924    5.0846540    4.3842847    4.8126043    6.1017495  
  14 C       5.3386021    4.6219258    4.3037748    5.3378647    6.3075082  
  15 H       5.8403015    4.2936514    4.5854409    6.2170928    6.5969929  
  16 H       5.6592322    4.6267176    4.6249170    5.9019954    6.4465140  
  17 H       6.7081087    5.6574318    5.6084273    6.8326322    7.5993459  
  18 H       6.1544079    6.0742819    5.4415354    5.8671815    7.1904919  
  19 H       4.9944234    5.1119923    4.4163294    4.7650971    5.9594451  
  20 H       4.7393923    5.1877928    4.2648151    4.2845508    5.8081013  
  21 H       6.3946313    5.6648677    5.3749677    6.3396805    7.3785798  
  22 H       5.0646484    4.7695186    4.2190595    4.9046215    6.0649022  
  23 H       5.4084619    4.2726111    4.2438018    5.5946862    6.2731733  

                6 H          7 H          8 C          9 O         10 O     

   1 C       3.3514863    2.6930374 *  2.3727300 *  2.7464720 *  3.3939809  
   2 C       1.0735833 *  1.0792492 *  2.4103699 *  3.4236018    2.6686376 *
   3 N       2.0855777 *  2.0795520 *  1.4870957 *  2.3368926 *  2.2910670 *
   4 H       4.1633055    3.7488909    2.4939120 *  2.4283434 *  3.6371698  
   5 H       3.7539219    2.5226651 *  3.3710651    3.7929682    4.2955555  
   6 H       0.0000000    1.8880547 *  2.5669881 *  3.6420358    2.3676581 *
   7 H       1.8880547 *  0.0000000    3.3984548    4.3359889    3.7142998  
   8 C       2.5669881 *  3.3984548    0.0000000    1.1984763 *  1.3075644 *
   9 O       3.6420358    4.3359889    1.1984763 *  0.0000000    2.2666545 *
  10 O       2.3676581 *  3.7142998    1.3075644 *  2.2666545 *  0.0000000  
  11 C       3.6250819    5.1777996    2.4635430 *  2.8867054 *  1.5114409 *
  12 C       3.8716485    5.5569544    3.6165535    4.2989868    2.3569850 *
  13 C       4.8248329    6.1034519    3.0418381    3.1012441    2.4673702 *
  14 C       4.0489180    5.6907975    2.9852914 *  3.0419650    2.4759001 *
  15 H       3.3982160    5.2014269    3.8300532    4.6333299    2.5986039 *
  16 H       4.0256523    5.4991736    3.8531940    4.6582133    2.5826312 *
  17 H       4.9121613    6.6356199    4.5229116    5.0348217    3.3357099  
  18 H       5.7097635    7.1091188    4.0665561    4.0368561    3.4125945  
  19 H       4.9459645    6.0449908    3.3077533    3.5682184    2.6760921 *
  20 H       5.0982338    6.1890567    2.8755474 *  2.5317759 *  2.7910034 *
  21 H       5.0234711    6.7307827    4.0300226    4.0104574    3.4148673  
  22 H       4.3991552    5.8188955    2.8471079 *  2.4837069 *  2.8233188 *
  23 H       3.5528190    5.2884772    3.1842945    3.4419687    2.6698489 *

               11 C         12 C         13 C         14 C         15 H     

   1 C       4.7555393    5.7151567    5.0705924    5.3386021    5.8403015  
   2 C       4.1181919    4.5896332    5.0846540    4.6219258    4.2936514  
   3 N       3.7418035    4.5843608    4.3842847    4.3037748    4.5854409  
   4 H       4.7871531    5.9278140    4.8126043    5.3378647    6.2170928  
   5 H       5.7256674    6.5674710    6.1017495    6.3075082    6.5969929  
   6 H       3.6250819    3.8716485    4.8248329    4.0489180    3.3982160  
   7 H       5.1777996    5.5569544    6.1034519    5.6907975    5.2014269  
   8 C       2.4635430 *  3.6165535    3.0418381    2.9852914 *  3.8300532  
   9 O       2.8867054 *  4.2989868    3.1012441    3.0419650    4.6333299  
  10 O       1.5114409 *  2.3569850 *  2.4673702 *  2.4759001 *  2.5986039 *
  11 C       0.0000000    1.5223871 *  1.5232214 *  1.5237774 *  2.1690610 *
  12 C       1.5223871 *  0.0000000    2.5172095 *  2.5146405 *  1.0918858 *
  13 C       1.5232214 *  2.5172095 *  0.0000000    2.5461062 *  3.4708757  
  14 C       1.5237774 *  2.5146405 *  2.5461062 *  0.0000000    2.7350973 *
  15 H       2.1690610 *  1.0918858 *  3.4708757    2.7350973 *  0.0000000  
  16 H       2.1704477 *  1.0920490 *  2.7513773 *  3.4695346    1.7741841 *
  17 H       2.1488846 *  1.0917933 *  2.7786035 *  2.7875575 *  1.7692553 *
  18 H       2.1434318 *  2.7609320 *  1.0926573 *  2.8193615 *  3.7677935  
  19 H       2.1665824 *  2.7482643 *  1.0924036 *  3.4896843    3.7471229  
  20 H       2.1800313 *  3.4761819    1.0891193 *  2.7898517 *  4.3208242  
  21 H       2.1418639 *  2.7331454 *  2.8402949 *  1.0925342 *  3.0345103  
  22 H       2.1809748 *  3.4743314    2.7705632 *  1.0884399 *  3.7556123  
  23 H       2.1681036 *  2.7661207 *  3.4887777    1.0925158 *  2.5354088 *

               16 H         17 H         18 H         19 H         20 H     

   1 C       5.6592322    6.7081087    6.1544079    4.9944234    4.7393923  
   2 C       4.6267176    5.6574318    6.0742819    5.1119923    5.1877928  
   3 N       4.6249170    5.6084273    5.4415354    4.4163294    4.2648151  
   4 H       5.9019954    6.8326322    5.8671815    4.7650971    4.2845508  
   5 H       6.4465140    7.5993459    7.1904919    5.9594451    5.8081013  
   6 H       4.0256523    4.9121613    5.7097635    4.9459645    5.0982338  
   7 H       5.4991736    6.6356199    7.1091188    6.0449908    6.1890567  
   8 C       3.8531940    4.5229116    4.0665561    3.3077533    2.8755474 *
   9 O       4.6582133    5.0348217    4.0368561    3.5682184    2.5317759 *
  10 O       2.5826312 *  3.3357099    3.4125945    2.6760921 *  2.7910034 *
  11 C       2.1704477 *  2.1488846 *  2.1434318 *  2.1665824 *  2.1800313 *
  12 C       1.0920490 *  1.0917933 *  2.7609320 *  2.7482643 *  3.4761819  
  13 C       2.7513773 *  2.7786035 *  1.0926573 *  1.0924036 *  1.0891193 *
  14 C       3.4695346    2.7875575 *  2.8193615 *  3.4896843    2.7898517 *
  15 H       1.7741841 *  1.7692553 *  3.7677935    3.7471229    4.3208242  
  16 H       0.0000000    1.7684837 *  3.0937492    2.5300221 *  3.7581262  
  17 H       1.7684837 *  0.0000000    2.5738174 *  3.1143771    3.7807152  
  18 H       3.0937492    2.5738174 *  0.0000000    1.7663059 *  1.7659079 *
  19 H       2.5300221 *  3.1143771    1.7663059 *  0.0000000    1.7759933 *
  20 H       3.7581262    3.7807152    1.7659079 *  1.7759933 *  0.0000000  
  21 H       3.7520748    2.5572372 *  2.6767412 *  3.8309536    3.1945195  
  22 H       4.3220570    3.7747989    3.1283836    3.7729979    2.5706913 *
  23 H       3.7537090    3.1608331    3.8267036    4.3132292    3.7738400  

               21 H         22 H         23 H     

   1 C       6.3946313    5.0646484    5.4084619  
   2 C       5.6648677    4.7695186    4.2726111  
   3 N       5.3749677    4.2190595    4.2438018  
   4 H       6.3396805    4.9046215    5.5946862  
   5 H       7.3785798    6.0649022    6.2731733  
   6 H       5.0234711    4.3991552    3.5528190  
   7 H       6.7307827    5.8188955    5.2884772  
   8 C       4.0300226    2.8471079 *  3.1842945  
   9 O       4.0104574    2.4837069 *  3.4419687  
  10 O       3.4148673    2.8233188 *  2.6698489 *
  11 C       2.1418639 *  2.1809748 *  2.1681036 *
  12 C       2.7331454 *  3.4743314    2.7661207 *
  13 C       2.8402949 *  2.7705632 *  3.4887777  
  14 C       1.0925342 *  1.0884399 *  1.0925158 *
  15 H       3.0345103    3.7556123    2.5354088 *
  16 H       3.7520748    4.3220570    3.7537090  
  17 H       2.5572372 *  3.7747989    3.1608331  
  18 H       2.6767412 *  3.1283836    3.8267036  
  19 H       3.8309536    3.7729979    4.3132292  
  20 H       3.1945195    2.5706913 *  3.7738400  
  21 H       0.0000000    1.7654389 *  1.7653323 *
  22 H       1.7654389 *  0.0000000    1.7761937 *
  23 H       1.7653323 *  1.7761937 *  0.0000000  

  * ... LESS THAN  3.000


     ATOMIC BASIS SET
     ----------------
 THE CONTRACTED PRIMITIVE FUNCTIONS HAVE BEEN UNNORMALIZED
 THE CONTRACTED BASIS FUNCTIONS ARE NOW NORMALIZED TO UNITY

  SHELL TYPE  PRIMITIVE        EXPONENT          CONTRACTION COEFFICIENT(S)

 C         

      1   S       1          4563.2400000    0.001966650249
      1   S       2           682.0240000    0.015230601932
      1   S       3           154.9730000    0.076126909656
      1   S       4            44.4553000    0.260801033080
      1   S       5            13.0290000    0.616462078191
      1   S       6             1.8277300    0.221006028032

      2   L       7            20.9642000    0.114660080729    0.040248692673
      2   L       8             4.8033100    0.919999647749    0.237593956746
      2   L       9             1.4593300   -0.003030682134    0.815853851473

      3   L      10             0.4834560    1.000000000000    1.000000000000

      4   L      11             0.1455850    1.000000000000    1.000000000000

      5   L      12             0.0438000    1.000000000000    1.000000000000

      6   D      13             1.2520000    1.000000000000

      7   D      14             0.3130000    1.000000000000

 C         

      8   S      15          4563.2400000    0.001966650249
      8   S      16           682.0240000    0.015230601932
      8   S      17           154.9730000    0.076126909656
      8   S      18            44.4553000    0.260801033080
      8   S      19            13.0290000    0.616462078191
      8   S      20             1.8277300    0.221006028032

      9   L      21            20.9642000    0.114660080729    0.040248692673
      9   L      22             4.8033100    0.919999647749    0.237593956746
      9   L      23             1.4593300   -0.003030682134    0.815853851473

     10   L      24             0.4834560    1.000000000000    1.000000000000

     11   L      25             0.1455850    1.000000000000    1.000000000000

     12   L      26             0.0438000    1.000000000000    1.000000000000

     13   D      27             1.2520000    1.000000000000

     14   D      28             0.3130000    1.000000000000

 N         

     15   S      29          6293.4800000    0.001969788147
     15   S      30           949.0440000    0.014961285923
     15   S      31           218.7760000    0.073500530843
     15   S      32            63.6916000    0.248936765774
     15   S      33            18.8282000    0.602459433142
     15   S      34             2.7202300    0.256201758938

     16   L      35            30.6331000    0.111906079519    0.038311918640
     16   L      36             7.0261400    0.921666654920    0.237403115502
     16   L      37             2.1120500   -0.002569191826    0.817592397779

     17   L      38             0.6840090    1.000000000000    1.000000000000

     18   L      39             0.2008780    1.000000000000    1.000000000000

     19   L      40             0.0639000    1.000000000000    1.000000000000

     20   D      41             1.8260000    1.000000000000

     21   D      42             0.4565000    1.000000000000

 H         

     22   S      43            33.8650000    0.025493814541
     22   S      44             5.0947900    0.190373108582
     22   S      45             1.1587900    0.852161486043

     23   S      46             0.3258400    1.000000000000

     24   S      47             0.1027410    1.000000000000

     25   P      48             0.7500000    1.000000000000

 H         

     26   S      49            33.8650000    0.025493814541
     26   S      50             5.0947900    0.190373108582
     26   S      51             1.1587900    0.852161486043

     27   S      52             0.3258400    1.000000000000

     28   S      53             0.1027410    1.000000000000

     29   P      54             0.7500000    1.000000000000

 H         

     30   S      55            33.8650000    0.025493814541
     30   S      56             5.0947900    0.190373108582
     30   S      57             1.1587900    0.852161486043

     31   S      58             0.3258400    1.000000000000

     32   S      59             0.1027410    1.000000000000

     33   P      60             0.7500000    1.000000000000

 H         

     34   S      61            33.8650000    0.025493814541
     34   S      62             5.0947900    0.190373108582
     34   S      63             1.1587900    0.852161486043

     35   S      64             0.3258400    1.000000000000

     36   S      65             0.1027410    1.000000000000

     37   P      66             0.7500000    1.000000000000

 C         

     38   S      67          4563.2400000    0.001966650249
     38   S      68           682.0240000    0.015230601932
     38   S      69           154.9730000    0.076126909656
     38   S      70            44.4553000    0.260801033080
     38   S      71            13.0290000    0.616462078191
     38   S      72             1.8277300    0.221006028032

     39   L      73            20.9642000    0.114660080729    0.040248692673
     39   L      74             4.8033100    0.919999647749    0.237593956746
     39   L      75             1.4593300   -0.003030682134    0.815853851473

     40   L      76             0.4834560    1.000000000000    1.000000000000

     41   L      77             0.1455850    1.000000000000    1.000000000000

     42   L      78             0.0438000    1.000000000000    1.000000000000

     43   D      79             1.2520000    1.000000000000

     44   D      80             0.3130000    1.000000000000

 O         

     45   S      81          8588.5000000    0.001895150083
     45   S      82          1297.2300000    0.014385900631
     45   S      83           299.2960000    0.070732003103
     45   S      84            87.3771000    0.240001010530
     45   S      85            25.6789000    0.594797026097
     45   S      86             3.7400400    0.280802012320

     46   L      87            42.1175000    0.113889012440    0.036511397380
     46   L      88             9.6283700    0.920811100576    0.237152982984
     46   L      89             2.8533200   -0.003274470358    0.819701941186

     47   L      90             0.9056610    1.000000000000    1.000000000000

     48   L      91             0.2556110    1.000000000000    1.000000000000

     49   L      92             0.0845000    1.000000000000    1.000000000000

     50   D      93             2.5840000    1.000000000000

     51   D      94             0.6460000    1.000000000000

 O         

     52   S      95          8588.5000000    0.001895150083
     52   S      96          1297.2300000    0.014385900631
     52   S      97           299.2960000    0.070732003103
     52   S      98            87.3771000    0.240001010530
     52   S      99            25.6789000    0.594797026097
     52   S     100             3.7400400    0.280802012320

     53   L     101            42.1175000    0.113889012440    0.036511397380
     53   L     102             9.6283700    0.920811100576    0.237152982984
     53   L     103             2.8533200   -0.003274470358    0.819701941186

     54   L     104             0.9056610    1.000000000000    1.000000000000

     55   L     105             0.2556110    1.000000000000    1.000000000000

     56   L     106             0.0845000    1.000000000000    1.000000000000

     57   D     107             2.5840000    1.000000000000

     58   D     108             0.6460000    1.000000000000

 C         

     59   S     109          4563.2400000    0.001966650249
     59   S     110           682.0240000    0.015230601932
     59   S     111           154.9730000    0.076126909656
     59   S     112            44.4553000    0.260801033080
     59   S     113            13.0290000    0.616462078191
     59   S     114             1.8277300    0.221006028032

     60   L     115            20.9642000    0.114660080729    0.040248692673
     60   L     116             4.8033100    0.919999647749    0.237593956746
     60   L     117             1.4593300   -0.003030682134    0.815853851473

     61   L     118             0.4834560    1.000000000000    1.000000000000

     62   L     119             0.1455850    1.000000000000    1.000000000000

     63   L     120             0.0438000    1.000000000000    1.000000000000

     64   D     121             1.2520000    1.000000000000

     65   D     122             0.3130000    1.000000000000

 C         

     66   S     123          4563.2400000    0.001966650249
     66   S     124           682.0240000    0.015230601932
     66   S     125           154.9730000    0.076126909656
     66   S     126            44.4553000    0.260801033080
     66   S     127            13.0290000    0.616462078191
     66   S     128             1.8277300    0.221006028032

     67   L     129            20.9642000    0.114660080729    0.040248692673
     67   L     130             4.8033100    0.919999647749    0.237593956746
     67   L     131             1.4593300   -0.003030682134    0.815853851473

     68   L     132             0.4834560    1.000000000000    1.000000000000

     69   L     133             0.1455850    1.000000000000    1.000000000000

     70   L     134             0.0438000    1.000000000000    1.000000000000

     71   D     135             1.2520000    1.000000000000

     72   D     136             0.3130000    1.000000000000

 C         

     73   S     137          4563.2400000    0.001966650249
     73   S     138           682.0240000    0.015230601932
     73   S     139           154.9730000    0.076126909656
     73   S     140            44.4553000    0.260801033080
     73   S     141            13.0290000    0.616462078191
     73   S     142             1.8277300    0.221006028032

     74   L     143            20.9642000    0.114660080729    0.040248692673
     74   L     144             4.8033100    0.919999647749    0.237593956746
     74   L     145             1.4593300   -0.003030682134    0.815853851473

     75   L     146             0.4834560    1.000000000000    1.000000000000

     76   L     147             0.1455850    1.000000000000    1.000000000000

     77   L     148             0.0438000    1.000000000000    1.000000000000

     78   D     149             1.2520000    1.000000000000

     79   D     150             0.3130000    1.000000000000

 C         

     80   S     151          4563.2400000    0.001966650249
     80   S     152           682.0240000    0.015230601932
     80   S     153           154.9730000    0.076126909656
     80   S     154            44.4553000    0.260801033080
     80   S     155            13.0290000    0.616462078191
     80   S     156             1.8277300    0.221006028032

     81   L     157            20.9642000    0.114660080729    0.040248692673
     81   L     158             4.8033100    0.919999647749    0.237593956746
     81   L     159             1.4593300   -0.003030682134    0.815853851473

     82   L     160             0.4834560    1.000000000000    1.000000000000

     83   L     161             0.1455850    1.000000000000    1.000000000000

     84   L     162             0.0438000    1.000000000000    1.000000000000

     85   D     163             1.2520000    1.000000000000

     86   D     164             0.3130000    1.000000000000

 H         

     87   S     165            33.8650000    0.025493814541
     87   S     166             5.0947900    0.190373108582
     87   S     167             1.1587900    0.852161486043

     88   S     168             0.3258400    1.000000000000

     89   S     169             0.1027410    1.000000000000

     90   P     170             0.7500000    1.000000000000

 H         

     91   S     171            33.8650000    0.025493814541
     91   S     172             5.0947900    0.190373108582
     91   S     173             1.1587900    0.852161486043

     92   S     174             0.3258400    1.000000000000

     93   S     175             0.1027410    1.000000000000

     94   P     176             0.7500000    1.000000000000

 H         

     95   S     177            33.8650000    0.025493814541
     95   S     178             5.0947900    0.190373108582
     95   S     179             1.1587900    0.852161486043

     96   S     180             0.3258400    1.000000000000

     97   S     181             0.1027410    1.000000000000

     98   P     182             0.7500000    1.000000000000

 H         

     99   S     183            33.8650000    0.025493814541
     99   S     184             5.0947900    0.190373108582
     99   S     185             1.1587900    0.852161486043

    100   S     186             0.3258400    1.000000000000

    101   S     187             0.1027410    1.000000000000

    102   P     188             0.7500000    1.000000000000

 H         

    103   S     189            33.8650000    0.025493814541
    103   S     190             5.0947900    0.190373108582
    103   S     191             1.1587900    0.852161486043

    104   S     192             0.3258400    1.000000000000

    105   S     193             0.1027410    1.000000000000

    106   P     194             0.7500000    1.000000000000

 H         

    107   S     195            33.8650000    0.025493814541
    107   S     196             5.0947900    0.190373108582
    107   S     197             1.1587900    0.852161486043

    108   S     198             0.3258400    1.000000000000

    109   S     199             0.1027410    1.000000000000

    110   P     200             0.7500000    1.000000000000

 H         

    111   S     201            33.8650000    0.025493814541
    111   S     202             5.0947900    0.190373108582
    111   S     203             1.1587900    0.852161486043

    112   S     204             0.3258400    1.000000000000

    113   S     205             0.1027410    1.000000000000

    114   P     206             0.7500000    1.000000000000

 H         

    115   S     207            33.8650000    0.025493814541
    115   S     208             5.0947900    0.190373108582
    115   S     209             1.1587900    0.852161486043

    116   S     210             0.3258400    1.000000000000

    117   S     211             0.1027410    1.000000000000

    118   P     212             0.7500000    1.000000000000

 H         

    119   S     213            33.8650000    0.025493814541
    119   S     214             5.0947900    0.190373108582
    119   S     215             1.1587900    0.852161486043

    120   S     216             0.3258400    1.000000000000

    121   S     217             0.1027410    1.000000000000

    122   P     218             0.7500000    1.000000000000

 TOTAL NUMBER OF BASIS SET SHELLS             =  122
 NUMBER OF CARTESIAN GAUSSIAN BASIS FUNCTIONS =  368
 NUMBER OF ELECTRONS                          =   78
 CHARGE OF MOLECULE                           =    0
 SPIN MULTIPLICITY                            =    1
 NUMBER OF OCCUPIED ORBITALS (ALPHA)          =   39
 NUMBER OF OCCUPIED ORBITALS (BETA )          =   39
 TOTAL NUMBER OF ATOMS                        =   23
 THE NUCLEAR REPULSION ENERGY IS      571.8696797970

 SELECTED MURRAY-HANDY-LAMING RADIAL GRID

 LEGACY BECKE'S FUZZY CELL METHOD

 SELECTED ORIGINAL BECKE'S PARTITION FUNCTION

     LEBEDEV GRID-BASED DFT OPTIONS
     ------------------------------
     DFTTYP=B3LYP   
     NRAD  =      96     NLEB  =     302
     NRAD0 =      24     NLEB0 =     110
     SWOFF =    5.00E-03 (PURE SCF -> DFT)
     SWITCH=    3.00E-04 (COARSE -> TIGHT GRID)
     THRESH=    0.00E+00 GTHRE=    1.00E+00

 GRIMME'S EMPIRICAL DISPERSION CORRECTION= F

     $CONTRL OPTIONS
     ---------------
 SCFTYP=RHF          RUNTYP=ENERGY       EXETYP=RUN     
 MPLEVL=       0     CITYP =NONE         CCTYP =NONE         VBTYP =NONE    
 DFTTYP=B3LYP        TDDFT =EXCITE  
 MULT  =       1     ICHARG=       0     NZVAR =       0     COORD =UNIQUE  
 PP    =NONE         RELWFN=NONE         LOCAL =NONE         NUMGRD=       F
 ISPHER=      -1     NOSYM =       0     MAXIT =      30     UNITS =ANGS    
 PLTORB=       F     MOLPLT=       F     AIMPAC=       F     FRIEND=        
 NPRINT=       7     IREST =       0     GEOM  =INPUT   
 NORMF =       0     NORMP =       0     ITOL  =      20     ICUT  =       9
 INTTYP=BEST         GRDTYP=BEST         QMTTOL= 1.0E-06

     $SYSTEM OPTIONS
     ---------------
  REPLICATED MEMORY=   200000000 WORDS (ON EVERY NODE).
 DISTRIBUTED MEMDDI=           0 MILLION WORDS IN AGGREGATE,
 MEMDDI DISTRIBUTED OVER   6 PROCESSORS IS           0 WORDS/PROCESSOR.
 TOTAL MEMORY REQUESTED ON EACH PROCESSOR=   200000000 WORDS.
 TIMLIM=      525600.00 MINUTES, OR     365.0 DAYS.
 PARALL= T  BALTYP=  DLB     KDIAG=    0  COREFL= F
 MXSEQ2=     300 MXSEQ3=     150  mem10=         0  mem22=         0

     -----------------------------------
     INPUT FOR PCM SOLVATION CALCULATION 
     -----------------------------------
     IEF   =     -10
     ICOMP =       0     IFIELD=       0     ICAV  =       0
     IDISP =       0     IREP  =       0     IDP   =       0

     SOLVNT=ACETNTRL     EPS   = 35.6880     EPSINF=  1.8069
     VMOL  =  0.0000     TCE   =  0.00000000 STEN  =  0.0000
     DSTEN =  0.0000     CMF   =  0.0000     RSOLV =  0.0000

     NESFP =       0
     OMEGA = 40.0000     RET   =100.0000     FRO   =  0.7000

     TABS  =298.0000     IPRINT=       0

     --------------------------------
     INPUT FOR ITERATIVE C-PCM METHOD 
     --------------------------------
     IPCMIT  =         1     MXDIIS  =        50
     MXITR1  =        50     MXITR2  =        50
     THRES   = 0.100E-09     IMUL    =         3
     RCUT(1) =   15.0000     RCUT(2) =   30.0000

     IDIRCT  =         1
     IMGABI  =         0     RABI    =    4.0000
     IMGASC  =         0     RASC    =   20.0000
     THRSLS  = 0.500E-03     DENSLS  =    0.0100
     IEFPOL  =         1     REFPOL  =    0.0000

     ------------------------------------
     INPUT FOR NONAQUEOUS SMD CALCULATION 
     ------------------------------------
     SOLVNT= acetonitrile                    EPS   = 35.6880
     SOLA  =  0.0700     SOLB  =  0.3200     SOLC  =  0.0000
     SOLG  = 41.2500     SOLH  =  0.0000     SOLN  =  1.3442

     INPUT FOR ISOTROPIC DIELECTRICS
     -------------------------------
     EPS=    35.69

     INPUT FOR CAVITY DEFINITION 
     ---------------------------
   ATOM               COORDINATES                RADIUS       EPS
      1      2.2772     -1.2453      0.1256      1.8500     35.6880
      2      1.7084      0.9467     -0.7201      1.8500     35.6880
      3      1.4333     -0.2892     -0.2832      1.8900     35.6880
      4      1.8750     -2.2060      0.3899      1.2000     35.6880
      5      3.3365     -1.0436      0.0914      1.2000     35.6880
      6      0.8997      1.5981     -0.9925      1.2000     35.6880
      7      2.7411      1.2587     -0.7505      1.2000     35.6880
      8      0.0027     -0.6949     -0.2667      1.8500     35.6880
      9     -0.3188     -1.8083     -0.5724      2.1680     35.6880
     10     -0.7410      0.3070      0.1241      2.1680     35.6880
     11     -2.2493      0.2127      0.1502      1.8500     35.6880
     12     -2.6465      1.6237      0.5611      1.8500     35.6880
     13     -2.6589     -0.8107      1.2014      1.8500     35.6880
     14     -2.7577     -0.1201     -1.2472      1.8500     35.6880
     15     -2.3106      2.3563     -0.1756      1.2000     35.6880
     16     -2.2222      1.8855      1.5328      1.2000     35.6880
     17     -3.7338      1.6884      0.6361      1.2000     35.6880
     18     -3.7466     -0.7970      1.3048      1.2000     35.6880
     19     -2.2266     -0.5620      2.1734      1.2000     35.6880
     20     -2.3582     -1.8211      0.9277      1.2000     35.6880
     21     -3.8463     -0.0272     -1.2569      1.2000     35.6880
     22     -2.5026     -1.1353     -1.5456      1.2000     35.6880
     23     -2.3565      0.5798     -1.9840      1.2000     35.6880

     ----------------------------
     INPUT FOR TESSERA DEFINITION
     ----------------------------
     NTSALL  =        60     MTHALL  =         4
     MTHAUT  =         0     AUTFRE  =    2.0000
     NTSFRZ  =        60     KEEPSM  =         0
     AREAKP  =   10.0000     BONDRY  =    1.0000
     AREATL  =    0.0100

     SPHERE     INITS       METHOD
          1        60       FIXPVA
          2        60       FIXPVA
          3        60       FIXPVA
          4        60       FIXPVA
          5        60       FIXPVA
          6        60       FIXPVA
          7        60       FIXPVA
          8        60       FIXPVA
          9        60       FIXPVA
         10        60       FIXPVA
         11        60       FIXPVA
         12        60       FIXPVA
         13        60       FIXPVA
         14        60       FIXPVA
         15        60       FIXPVA
         16        60       FIXPVA
         17        60       FIXPVA
         18        60       FIXPVA
         19        60       FIXPVA
         20        60       FIXPVA
         21        60       FIXPVA
         22        60       FIXPVA
         23        60       FIXPVA

     ------------------------------
      FIXPVA TESSELLATION FOR PCM
         PEIFENG SU AND HUI LI
     UNIVERSITY OF NEBRASKA-LINCOLN
     ------------------------------


 PCM DIMENSIONS: MXSP=  2000, MXTS=       920, MEMORY=         42243

 Using Gaussians for PCM contribution to MEP, params: 0.10000E+01 0.10000E-07

          ----------------
          PROPERTIES INPUT
          ----------------

     MOMENTS            FIELD           POTENTIAL          DENSITY
 IEMOM =       1   IEFLD =       0   IEPOT =       0   IEDEN =       0
 WHERE =COMASS     WHERE =NUCLEI     WHERE =NUCLEI     WHERE =NUCLEI  
 OUTPUT=BOTH       OUTPUT=BOTH       OUTPUT=BOTH       OUTPUT=BOTH    
 IEMINT=       0   IEFINT=       0                     IEDINT=       0
                                                       MORB  =       0
          EXTRAPOLATION IN EFFECT
          DIIS IN EFFECT
 ORBITAL PRINTING OPTION: NPREO=     1   368     2     1

     -------------------------------
     INTEGRAL TRANSFORMATION OPTIONS
     -------------------------------
     NWORD  =            0
     CUTOFF = 1.0E-09     MPTRAN =       0
     DIRTRF =       T     AOINTS =DUP     

          ----------------------
          INTEGRAL INPUT OPTIONS
          ----------------------
 NOPK  =       1 NORDER=       0 SCHWRZ=       T

          ----------------------
          TDDFT INPUT PARAMETERS
          ----------------------
 NSTATE=      20 IROOT =       1 MULT  =       1
 MAXVEC=      50 NTRIAL=       5 CNVTOL=  1.00E-07
 TDPRP =       F TRNSD =       F TAMMD =       F
 TPA   =       F ALPHA =       F BETA  =       F
 PFREQ =    0.00    0.00
   NRAD=      48   NLEB=     110

     ------------------------------------------
     THE POINT GROUP IS C1 , NAXIS= 1, ORDER= 1
     ------------------------------------------

     DIMENSIONS OF THE SYMMETRY SUBSPACES ARE
 A   =  368

 ..... DONE SETTING UP THE RUN .....
 CPU     0: STEP CPU TIME=     0.11 TOTAL CPU TIME=          0.1 (      0.0 MIN)
 TOTAL WALL CLOCK TIME=          0.1 SECONDS, CPU UTILIZATION IS    84.62%

          ********************
          1 ELECTRON INTEGRALS
          ********************
 ...... END OF ONE-ELECTRON INTEGRALS ......
 CPU     0: STEP CPU TIME=     0.03 TOTAL CPU TIME=          0.1 (      0.0 MIN)
 TOTAL WALL CLOCK TIME=          0.1 SECONDS, CPU UTILIZATION IS    93.33%

          -------------
          GUESS OPTIONS
          -------------
          GUESS =MOREAD            NORB  =      39          NORDER=       0
          MIX   =       F          PRTMO =       F          PUNMO =       F
          TOLZ  = 1.0E-08          TOLE  = 1.0E-05
          SYMDEN=       F          PURIFY=       F

 INITIAL GUESS ORBITALS GENERATED BY MOREAD   ROUTINE.

 SYMMETRIES FOR INITIAL GUESS ORBITALS FOLLOW.   BOTH SET(S).
    39 ORBITALS ARE OCCUPIED (   10 CORE ORBITALS).
     1=A        2=A        3=A        4=A        5=A        6=A        7=A   
     8=A        9=A       10=A       11=A       12=A       13=A       14=A   
    15=A       16=A       17=A       18=A       19=A       20=A       21=A   
    22=A       23=A       24=A       25=A       26=A       27=A       28=A   
    29=A       30=A       31=A       32=A       33=A       34=A       35=A   
    36=A       37=A       38=A       39=A       40=A       41=A       42=A   
    43=A       44=A       45=A       46=A       47=A       48=A       49=A   
    50=A       51=A       52=A       53=A       54=A       55=A       56=A   
    57=A       58=A       59=A       60=A       61=A       62=A       63=A   
    64=A       65=A       66=A       67=A       68=A       69=A       70=A   
    71=A       72=A       73=A       74=A       75=A       76=A       77=A   
    78=A       79=A       80=A       81=A       82=A       83=A       84=A   
    85=A       86=A       87=A       88=A       89=A       90=A       91=A   
    92=A       93=A       94=A       95=A       96=A       97=A       98=A   
    99=A      100=A      101=A      102=A      103=A      104=A      105=A   
   106=A      107=A      108=A      109=A      110=A      111=A      112=A   
   113=A      114=A      115=A      116=A      117=A      118=A      119=A   
   120=A      121=A      122=A      123=A      124=A      125=A      126=A   
   127=A      128=A      129=A      130=A      131=A      132=A      133=A   
   134=A      135=A      136=A      137=A      138=A      139=A      140=A   
   141=A      142=A      143=A      144=A      145=A      146=A      147=A   
   148=A      149=A      150=A      151=A      152=A      153=A      154=A   
   155=A      156=A      157=A      158=A      159=A      160=A      161=A   
   162=A      163=A      164=A      165=A      166=A      167=A      168=A   
   169=A      170=A      171=A      172=A      173=A      174=A      175=A   
   176=A      177=A      178=A      179=A      180=A      181=A      182=A   
   183=A      184=A      185=A      186=A      187=A      188=A      189=A   
   190=A      191=A      192=A      193=A      194=A      195=A      196=A   
   197=A      198=A      199=A      200=A      201=A      202=A      203=A   
   204=A      205=A      206=A      207=A      208=A      209=A      210=A   
   211=A      212=A      213=A      214=A      215=A      216=A      217=A   
   218=A      219=A      220=A      221=A      222=A      223=A      224=A   
   225=A      226=A      227=A      228=A      229=A      230=A      231=A   
   232=A      233=A      234=A      235=A      236=A      237=A      238=A   
   239=A      240=A      241=A      242=A      243=A      244=A      245=A   
   246=A      247=A      248=A      249=A      250=A      251=A      252=A   
   253=A      254=A      255=A      256=A      257=A      258=A      259=A   
   260=A      261=A      262=A      263=A      264=A      265=A      266=A   
   267=A      268=A      269=A      270=A      271=A      272=A      273=A   
   274=A      275=A      276=A      277=A      278=A      279=A      280=A   
   281=A      282=A      283=A      284=A      285=A      286=A      287=A   
   288=A      289=A      290=A      291=A      292=A      293=A      294=A   
   295=A      296=A      297=A      298=A      299=A      300=A      301=A   
   302=A      303=A      304=A      305=A      306=A      307=A      308=A   
   309=A      310=A      311=A      312=A      313=A      314=A      315=A   
   316=A      317=A      318=A      319=A      320=A      321=A      322=A   
   323=A      324=A      325=A      326=A      327=A      328=A      329=A   
   330=A      331=A      332=A      333=A      334=A      335=A      336=A   
   337=A      338=A      339=A      340=A      341=A      342=A      343=A   
   344=A      345=A      346=A      347=A      348=A      349=A      350=A   
   351=A      352=A      353=A      354=A      355=A      356=A      357=A   
   358=A      359=A      360=A      361=A      362=A      363=A      364=A   
   365=A      366=A      367=A      368=A   
 ...... END OF INITIAL ORBITAL SELECTION ......
 CPU     0: STEP CPU TIME=     0.14 TOTAL CPU TIME=          0.3 (      0.0 MIN)
 TOTAL WALL CLOCK TIME=          0.3 SECONDS, CPU UTILIZATION IS    82.35%

                    ----------------------
                    AO INTEGRAL TECHNOLOGY
                    ----------------------
     S,P,L SHELL ROTATED AXIS INTEGRALS, REPROGRAMMED BY
        KAZUYA ISHIMURA (IMS) AND JOSE SIERRA (SYNSTAR).
     S,P,D,L SHELL ROTATED AXIS INTEGRALS PROGRAMMED BY
        KAZUYA ISHIMURA (INSTITUTE FOR MOLECULAR SCIENCE).
     S,P,D,F,G SHELL TO TOTAL QUARTET ANGULAR MOMENTUM SUM 5,
        ERIC PROGRAM BY GRAHAM FLETCHER (ELORET AND NASA ADVANCED
        SUPERCOMPUTING DIVISION, AMES RESEARCH CENTER).
     S,P,D,F,G,L SHELL GENERAL RYS QUADRATURE PROGRAMMED BY
        MICHEL DUPUIS (PACIFIC NORTHWEST NATIONAL LABORATORY).

          --------------------
          2 ELECTRON INTEGRALS
          --------------------

 DIRECT SCF METHOD SKIPS INTEGRAL STORAGE ON DISK.
 DIRECT TRANSFORMATION SKIPS AO INTEGRAL STORAGE ON DISK.
  ...... END OF TWO-ELECTRON INTEGRALS .....
 CPU     0: STEP CPU TIME=     0.01 TOTAL CPU TIME=          0.3 (      0.0 MIN)
 TOTAL WALL CLOCK TIME=          0.4 SECONDS, CPU UTILIZATION IS    80.56%

          -------------------------------------
          ---- POLARISABLE CONTINUUM MODEL ----
          ----      UNIVERSITY OF PISA     ----
          -------------------------------------

     ----------------------------
     INPUT FOR TESSERA DEFINITION
     ----------------------------
     NTSALL  =        60     MTHALL  =         4
     MTHAUT  =         0     AUTFRE  =    2.0000
     NTSFRZ  =        60     KEEPSM  =         0
     AREAKP  =   10.0000     BONDRY  =    1.0000
     AREATL  =    0.0100

     SPHERE     INITS       METHOD
          1        60       FIXPVA
          2        60       FIXPVA
          3        60       FIXPVA
          4        60       FIXPVA
          5        60       FIXPVA
          6        60       FIXPVA
          7        60       FIXPVA
          8        60       FIXPVA
          9        60       FIXPVA
         10        60       FIXPVA
         11        60       FIXPVA
         12        60       FIXPVA
         13        60       FIXPVA
         14        60       FIXPVA
         15        60       FIXPVA
         16        60       FIXPVA
         17        60       FIXPVA
         18        60       FIXPVA
         19        60       FIXPVA
         20        60       FIXPVA
         21        60       FIXPVA
         22        60       FIXPVA
         23        60       FIXPVA

     ------------------------------
      FIXPVA TESSELLATION FOR PCM
         PEIFENG SU AND HUI LI
     UNIVERSITY OF NEBRASKA-LINCOLN
     ------------------------------


     INPUT FOR CAVITY DEFINITION 
     ---------------------------
   ATOM               COORDINATES                RADIUS       EPS
      1      2.2772     -1.2453      0.1256      1.8500     35.6880
      2      1.7084      0.9467     -0.7201      1.8500     35.6880
      3      1.4333     -0.2892     -0.2832      1.8900     35.6880
      4      1.8750     -2.2060      0.3899      1.2000     35.6880
      5      3.3365     -1.0436      0.0914      1.2000     35.6880
      6      0.8997      1.5981     -0.9925      1.2000     35.6880
      7      2.7411      1.2587     -0.7505      1.2000     35.6880
      8      0.0027     -0.6949     -0.2667      1.8500     35.6880
      9     -0.3188     -1.8083     -0.5724      2.1680     35.6880
     10     -0.7410      0.3070      0.1241      2.1680     35.6880
     11     -2.2493      0.2127      0.1502      1.8500     35.6880
     12     -2.6465      1.6237      0.5611      1.8500     35.6880
     13     -2.6589     -0.8107      1.2014      1.8500     35.6880
     14     -2.7577     -0.1201     -1.2472      1.8500     35.6880
     15     -2.3106      2.3563     -0.1756      1.2000     35.6880
     16     -2.2222      1.8855      1.5328      1.2000     35.6880
     17     -3.7338      1.6884      0.6361      1.2000     35.6880
     18     -3.7466     -0.7970      1.3048      1.2000     35.6880
     19     -2.2266     -0.5620      2.1734      1.2000     35.6880
     20     -2.3582     -1.8211      0.9277      1.2000     35.6880
     21     -3.8463     -0.0272     -1.2569      1.2000     35.6880
     22     -2.5026     -1.1353     -1.5456      1.2000     35.6880
     23     -2.3565      0.5798     -1.9840      1.2000     35.6880

 MEMORY USED TO GENERATE CAVITY=    282602


 TOTAL NUMBER OF SPHERES=    23
 SPHERE           CENTER  (X,Y,Z) (A)               RADIUS (A)      AREA(A*A)
     1   2.277160000  -1.245290000   0.125550000   1.850000000  13.884209924
     2   1.708390000   0.946700000  -0.720080000   1.850000000  12.929857392
     3   1.433280000  -0.289160000  -0.283210000   1.890000000   1.739698730
     4   1.874970000  -2.205950000   0.389890000   1.200000000   1.313797030
     5   3.336520000  -1.043650000   0.091370000   1.200000000   2.730572250
     6   0.899670000   1.598110000  -0.992510000   1.200000000   1.234282305
     7   2.741120000   1.258670000  -0.750450000   1.200000000   2.624277304
     8   0.002710000  -0.694930000  -0.266660000   1.850000000   0.000376816
     9  -0.318800000  -1.808250000  -0.572430000   2.167999999  24.504905482
    10  -0.741040000   0.306990000   0.124130000   2.167999999  12.688442122
    11  -2.249310000   0.212660000   0.150150000   1.850000000   0.000000000
    12  -2.646480000   1.623690000   0.561140000   1.850000000   6.293445812
    13  -2.658880000  -0.810690000   1.201440000   1.850000000   7.971766610
    14  -2.757730000  -0.120110000  -1.247230000   1.850000000   6.444187854
    15  -2.310580000   2.356250000  -0.175570000   1.200000000   2.810208598
    16  -2.222240000   1.885540000   1.532750000   1.200000000   2.678915885
    17  -3.733770000   1.688440000   0.636110000   1.200000000   3.113457677
    18  -3.746550000  -0.796960000   1.304810000   1.200000000   3.057010777
    19  -2.226600000  -0.562030000   2.173370000   1.200000000   2.830160744
    20  -2.358230000  -1.821070000   0.927720000   1.200000000   1.113853036
    21  -3.846260000  -0.027160000  -1.256910000   1.200000000   3.021132672
    22  -2.502570000  -1.135280000  -1.545600000   1.200000000   1.155792394
    23  -2.356480000   0.579760000  -1.983960000   1.200000000   2.694008569

 TOTAL NUMBER OF TESSERAE=     359
 SURFACE AREA=   116.83435998(A**2)    CAVITY VOLUME=    118.98492275 (A**3)
 CPU     0: STEP CPU TIME=     0.01 TOTAL CPU TIME=          0.3 (      0.0 MIN)
 TOTAL WALL CLOCK TIME=          0.4 SECONDS, CPU UTILIZATION IS    81.08%

          THE SOLUTE IS ENCLOSED IN ONE CAVITY
 DONE CHECKING SEPARATION.
 CPU     0: STEP CPU TIME=     0.00 TOTAL CPU TIME=          0.3 (      0.0 MIN)
 TOTAL WALL CLOCK TIME=          0.4 SECONDS, CPU UTILIZATION IS    81.08%

 ..... DONE GENERATING CAVITY .....
 CPU     0: STEP CPU TIME=     0.00 TOTAL CPU TIME=          0.3 (      0.0 MIN)
 TOTAL WALL CLOCK TIME=          0.4 SECONDS, CPU UTILIZATION IS    81.08%
 NUCLEI-NUCLEAR CHARGE POLARIZATION ADJUSTMENT TO VNN=        0.0000000000

          --------------------------
             R-B3LYP SCF CALCULATION
          --------------------------

     NUCLEAR ENERGY =       571.8696797970
     MAXIT =   30     NPUNCH=    2
     EXTRAP=T  DAMP=F  SHIFT=F  RSTRCT=F  DIIS=T  DEM=F  SOSCF=F
         DENSITY MATRIX CONVERGENCE THRESHOLD=  2.00E-06
     COARSE -> FINE DFT GRID SWITCH THRESHOLD=  3.00E-04 (SWITCH IN $DFT)
                   HF -> DFT SWITCH THRESHOLD=  0.00E+00 (SWOFF IN $DFT)
     MEMORY REQUIRED FOR RHF ITERS=   2026156 WORDS.

 DIRECT SCF CALCULATION, SCHWRZ=T   FDIFF=F,  DIRTHR=  0.00E+00 NITDIR=10
 SCHWARZ INEQUALITY OVERHEAD:     63578 INTEGRALS, T=        0.01

     EXCHANGE FUNCTIONAL   =B88&HFX   
     CORRELATION FUNCTIONAL=LYP88&VWN5
     DFT THRESHOLD         =.150E-08
     GRID CHANGE THRESHOLD =.300E-03
 FOR AN EULER-MACLAURIN QUADRATURE USING  96 RADIAL POINTS:
 SMALLEST GAUSSIAN PRIMITIVE EXPONENT=        0.0438000000 OF TYPE -P-
 ON ATOM NUMBER   1 HAS RADIAL NORMALIZATION=  1.000000
  LARGEST GAUSSIAN PRIMITIVE EXPONENT=     8588.5000000000 OF TYPE -S-
 ON ATOM NUMBER   9 HAS RADIAL NORMALIZATION=  1.000000

                                                                                   NONZERO     BLOCKS
 ITER EX DEM     TOTAL ENERGY        E CHANGE  DENSITY CHANGE    DIIS ERROR      INTEGRALS    SKIPPED
          * * *   INITIATING DIIS PROCEDURE   * * *
   1  0  0     -479.5830363532  -479.5830363532   0.000016037   0.000021891     1388036663   12205825
   2  1  0     -479.5830363600    -0.0000000068   0.000011424   0.000002807     1388036569   12205825
   3  2  0     -479.5830363592     0.0000000009   0.000008307   0.000006786     1388036509   12205829
   4  3  0     -479.5830363603    -0.0000000011   0.000000681   0.000000401     1388036536   12205828
   5  4  0     -479.5830363603    -0.0000000000   0.000000278   0.000000128     1388036532   12205829

          -----------------
          DENSITY CONVERGED
          -----------------
     TIME TO FORM FOCK OPERATORS=     119.2 SECONDS (      23.8 SEC/ITER)
     FOCK TIME ON FIRST ITERATION=      22.4, LAST ITERATION=      24.7
     TIME TO SOLVE SCF EQUATIONS=       0.5 SECONDS (       0.1 SEC/ITER)

 FINAL R-B3LYP ENERGY IS     -479.5830363603 AFTER   5 ITERATIONS
 DFT EXCHANGE + CORRELATION ENERGY =       -53.8953033041
 TOTAL ELECTRON NUMBER             =        78.0002352176
  
   PCM ASC=     -0.0380765717
   GCAVP  =      0.0000000000
   GDISP  =      0.0000000000
   GREP   =      0.0000000000

          ------------
          EIGENVECTORS
          ------------

                      1          2          3          4          5
                  -19.1899   -19.1386   -14.4172   -10.3550   -10.2563
                     A          A          A          A          A   
    1  C  1  S    0.000001   0.000003   0.000046  -0.000004   0.000012
    2  C  1  S   -0.000003  -0.000014  -0.000174  -0.000015  -0.000018
    3  C  1  X   -0.000006   0.000076  -0.000136  -0.000124   0.000030
    4  C  1  Y   -0.000023   0.000043   0.000115  -0.000026  -0.000019
    5  C  1  Z    0.000041  -0.000012  -0.000022   0.000002   0.000014
    6  C  1  S    0.000694   0.000695   0.004247  -0.000013   0.000450
    7  C  1  X   -0.000105  -0.000364  -0.000346   0.001490  -0.000240
    8  C  1  Y    0.000215  -0.000400   0.000502  -0.000219   0.000164
    9  C  1  Z   -0.000257   0.000081  -0.000371   0.000156  -0.000102
   10  C  1  S   -0.000994  -0.003307  -0.008324   0.001092  -0.000496
   11  C  1  X    0.000420   0.000159   0.000587   0.001003  -0.000081
   12  C  1  Y    0.000515  -0.000604  -0.002405   0.000044  -0.000024
   13  C  1  Z   -0.000345   0.000435   0.000996  -0.000314  -0.000024
   14  C  1  S    0.001565   0.001490  -0.000480  -0.005614   0.000860
   15  C  1  X   -0.000429   0.000081  -0.000666   0.001345  -0.000289
   16  C  1  Y    0.000103   0.000641   0.000450  -0.000206   0.000069
   17  C  1  Z   -0.000202  -0.000232  -0.000150   0.000356  -0.000041
   18  C  1 XX    0.000013   0.000014  -0.000204  -0.000147  -0.000002
   19  C  1 YY    0.000034  -0.000019  -0.000242  -0.000025  -0.000005
   20  C  1 ZZ    0.000014  -0.000009  -0.000160   0.000014  -0.000031
   21  C  1 XY    0.000007   0.000055   0.000288   0.000049   0.000002
   22  C  1 XZ    0.000049   0.000035  -0.000088  -0.000060  -0.000000
   23  C  1 YZ   -0.000006  -0.000038   0.000066   0.000006  -0.000017
   24  C  1 XX   -0.000015   0.000381   0.002133   0.001179  -0.000005
   25  C  1 YY    0.000472   0.000392   0.001720   0.000498   0.000228
   26  C  1 ZZ    0.000464   0.000400   0.000740  -0.000392   0.000236
   27  C  1 XY   -0.000089   0.000099   0.000562   0.001262  -0.000157
   28  C  1 XZ   -0.000085  -0.000113  -0.000120  -0.000113   0.000062
   29  C  1 YZ   -0.000357   0.000232  -0.000476  -0.000377  -0.000058
   30  C  2  S    0.000003   0.000001   0.000042  -0.000006   0.000002
   31  C  2  S   -0.000012  -0.000005  -0.000154  -0.000008  -0.000002
   32  C  2  X    0.000034   0.000003  -0.000076  -0.000119  -0.000027
   33  C  2  Y   -0.000017   0.000003  -0.000196  -0.000036  -0.000005
   34  C  2  Z   -0.000002  -0.000017   0.000045  -0.000008  -0.000003
   35  C  2  S   -0.000619   0.000549   0.003184  -0.000066  -0.000507
   36  C  2  X   -0.000397  -0.000077   0.000024   0.001060   0.000106
   37  C  2  Y    0.000214  -0.000080  -0.000359   0.000867   0.000036
   38  C  2  Z   -0.000002   0.000094   0.000244  -0.000176   0.000018
   39  C  2  S    0.001612  -0.002164  -0.005511   0.002011   0.001178
   40  C  2  X   -0.000226   0.000141  -0.001146   0.000898  -0.000420
   41  C  2  Y   -0.000264   0.000682   0.002469   0.000227  -0.000111
   42  C  2  Z   -0.000250   0.000436  -0.001159   0.000052  -0.000233
   43  C  2  S    0.000192   0.002589   0.004192  -0.003217  -0.000817
   44  C  2  X    0.000588  -0.000481  -0.001497   0.000564   0.000070
   45  C  2  Y   -0.000246  -0.000364  -0.001675   0.000495   0.000216
   46  C  2  Z    0.000014   0.000170   0.000556  -0.000128  -0.000030
   47  C  2 XX    0.000061   0.000011   0.000008  -0.000047  -0.000004
   48  C  2 YY   -0.000074   0.000036  -0.000447  -0.000092  -0.000013
   49  C  2 ZZ    0.000014  -0.000015  -0.000145   0.000011   0.000007
   50  C  2 XY    0.000009  -0.000009  -0.000130  -0.000096  -0.000007
   51  C  2 XZ   -0.000034   0.000023   0.000044   0.000024  -0.000004
   52  C  2 YZ   -0.000040   0.000002   0.000109   0.000036  -0.000004
   53  C  2 XX   -0.000544  -0.000057   0.002136   0.001589  -0.000219
   54  C  2 YY   -0.000195   0.000042   0.000860  -0.000247  -0.000241
   55  C  2 ZZ   -0.000389   0.000529   0.000159  -0.000338  -0.000362
   56  C  2 XY   -0.000298  -0.000178  -0.000153  -0.000495   0.000160
   57  C  2 XZ    0.000130  -0.000061   0.000232   0.000316  -0.000034
   58  C  2 YZ    0.000133  -0.000217  -0.000331  -0.000197  -0.000001
   59  N  3  S   -0.000004  -0.000010   0.559216  -0.000018   0.000002
   60  N  3  S    0.000014   0.000042   0.457331  -0.000110  -0.000023
   61  N  3  X   -0.000041  -0.000007  -0.000289  -0.000198  -0.000078
   62  N  3  Y    0.000028  -0.000010  -0.000057  -0.000044   0.000001
   63  N  3  Z    0.000049  -0.000032   0.000022   0.000020   0.000022
   64  N  3  S    0.000068   0.001650   0.021704   0.000762  -0.000551
   65  N  3  X   -0.000031  -0.000142   0.000419   0.000164   0.000356
   66  N  3  Y   -0.000090  -0.000058   0.000034   0.000004   0.000002
   67  N  3  Z   -0.000167   0.000118  -0.000067  -0.000078  -0.000081
   68  N  3  S    0.000931  -0.007184   0.057741   0.006763  -0.000738
   69  N  3  X   -0.001723   0.003330   0.000802  -0.004661   0.001482
   70  N  3  Y    0.000675  -0.000426   0.000805  -0.001535   0.000939
   71  N  3  Z    0.000524  -0.001077  -0.000021   0.000295  -0.000040
   72  N  3  S    0.004000   0.011968  -0.016832  -0.011052  -0.004829
   73  N  3  X   -0.002068  -0.003542   0.004181   0.005840   0.001981
   74  N  3  Y   -0.000474  -0.000774  -0.000862   0.000321  -0.000498
   75  N  3  Z    0.000727  -0.000004   0.000451   0.000224   0.000026
   76  N  3 XX    0.000083   0.000100  -0.009527  -0.000044   0.000000
   77  N  3 YY    0.000046   0.000097  -0.009501  -0.000113  -0.000016
   78  N  3 ZZ   -0.000001   0.000010  -0.010035  -0.000087  -0.000021
   79  N  3 XY   -0.000056   0.000056  -0.000018   0.000002  -0.000014
   80  N  3 XZ   -0.000005  -0.000025   0.000051  -0.000026   0.000003
   81  N  3 YZ    0.000046   0.000022  -0.000219   0.000059   0.000007
   82  N  3 XX   -0.000363   0.000611  -0.020193  -0.001122  -0.000941
   83  N  3 YY    0.000044   0.000771  -0.019681   0.000699  -0.000385
   84  N  3 ZZ    0.000195   0.001230  -0.018177   0.000224  -0.000293
   85  N  3 XY    0.000531  -0.000378   0.000019  -0.000454   0.000111
   86  N  3 XZ    0.000082   0.000133  -0.000100   0.000239   0.000010
   87  N  3 YZ   -0.000212  -0.000151   0.000513  -0.000562   0.000007
   88  H  4  S    0.000024   0.000039  -0.000028  -0.000061   0.000024
   89  H  4  S   -0.000154  -0.000192  -0.002015  -0.001410  -0.000058
   90  H  4  S    0.000335   0.000339   0.000656   0.001333  -0.000049
   91  H  4  X   -0.000010  -0.000072   0.000063   0.000202  -0.000001
   92  H  4  Y   -0.000036  -0.000108  -0.000634  -0.000314  -0.000013
   93  H  4  Z   -0.000075   0.000068   0.000165   0.000094  -0.000011
   94  H  5  S    0.000036  -0.000013  -0.000109  -0.000082   0.000025
   95  H  5  S   -0.000002   0.000335  -0.001426  -0.002308   0.000168
   96  H  5  S    0.000092   0.000140   0.001243  -0.000493  -0.000167
   97  H  5  X   -0.000009  -0.000095   0.000620   0.000613  -0.000025
   98  H  5  Y   -0.000020  -0.000000  -0.000158  -0.000107  -0.000021
   99  H  5  Z    0.000095   0.000014   0.000088  -0.000007   0.000020
  100  H  6  S    0.000063   0.000004  -0.000024  -0.000036  -0.000001
  101  H  6  S   -0.000378   0.000060  -0.002169  -0.001318   0.000073
  102  H  6  S    0.000161  -0.000045  -0.000074   0.001061  -0.000238
  103  H  6  X   -0.000136  -0.000010  -0.000241  -0.000042  -0.000013
  104  H  6  Y    0.000070   0.000017   0.000615   0.000327  -0.000027
  105  H  6  Z   -0.000070   0.000034  -0.000228  -0.000106   0.000009
  106  H  7  S    0.000007   0.000014  -0.000115  -0.000055  -0.000018
  107  H  7  S    0.000593   0.000326  -0.001492  -0.002007  -0.000030
  108  H  7  S   -0.000150  -0.000010   0.001513  -0.000396   0.000275
  109  H  7  X   -0.000144  -0.000065   0.000489   0.000419   0.000035
  110  H  7  Y   -0.000039  -0.000015   0.000432   0.000343   0.000015
  111  H  7  Z   -0.000034  -0.000015  -0.000106  -0.000075   0.000019
  112  C  8  S    0.000024   0.000025  -0.000001   0.565341   0.000027
  113  C  8  S   -0.000102  -0.000117   0.000007   0.452905   0.000043
  114  C  8  X   -0.000153  -0.000071   0.000101   0.000185  -0.000083
  115  C  8  Y    0.000153  -0.000295   0.000023   0.000587   0.000045
  116  C  8  Z    0.000083  -0.000102   0.000004   0.000152   0.000029
  117  C  8  S    0.001156  -0.001034   0.006991   0.023867   0.001120
  118  C  8  X   -0.000503  -0.000210   0.001037  -0.001468   0.000690
  119  C  8  Y    0.000329   0.000122   0.000001  -0.002298  -0.000908
  120  C  8  Z    0.000102   0.000133  -0.000126  -0.000508  -0.000373
  121  C  8  S    0.000849   0.011773  -0.013778   0.089121   0.002318
  122  C  8  X   -0.001241   0.001119  -0.002729  -0.009192   0.001237
  123  C  8  Y   -0.007428   0.011720  -0.003872  -0.004674  -0.003238
  124  C  8  Z   -0.002106   0.003738  -0.000727  -0.000854  -0.001041
  125  C  8  S   -0.004884   0.001829   0.002943   0.014063   0.005496
  126  C  8  X   -0.003055  -0.009763   0.002341   0.006311  -0.001651
  127  C  8  Y   -0.001162  -0.004620   0.000578   0.000639   0.000676
  128  C  8  Z   -0.000904   0.000091   0.000342  -0.000427  -0.000563
  129  C  8 XX    0.000109  -0.000138   0.000289  -0.012038  -0.000187
  130  C  8 YY    0.000111  -0.000223   0.000142  -0.011162   0.000006
  131  C  8 ZZ   -0.000065  -0.000182   0.000104  -0.013036   0.000078
  132  C  8 XY   -0.000232  -0.000053   0.000023   0.000148   0.000102
  133  C  8 XZ   -0.000117  -0.000015  -0.000023  -0.000052   0.000037
  134  C  8 YZ    0.000125   0.000002  -0.000006   0.000650  -0.000044
  135  C  8 XX   -0.000741  -0.000512   0.003974  -0.027108   0.001534
  136  C  8 YY    0.002620   0.000011   0.005766  -0.022038   0.001507
  137  C  8 ZZ   -0.000038  -0.001487   0.002892  -0.024119   0.000057
  138  C  8 XY   -0.000197  -0.000573   0.000278  -0.000276   0.001269
  139  C  8 XZ   -0.000020  -0.000203  -0.000012  -0.000023   0.000306
  140  C  8 YZ    0.000921   0.000613   0.001087   0.001416   0.000500
  141  O  9  S   -0.000031   0.552681  -0.000006  -0.000120   0.000002
  142  O  9  S   -0.000040   0.463228   0.000035  -0.000117  -0.000015
  143  O  9  X   -0.000007   0.000404   0.000077   0.000154  -0.000007
  144  O  9  Y    0.000034   0.001508   0.000070   0.000343   0.000047
  145  O  9  Z    0.000011   0.000428   0.000012   0.000079   0.000011
  146  O  9  S    0.000514   0.020630   0.000557   0.001017   0.000756
  147  O  9  X    0.000023  -0.000214  -0.000273  -0.000680  -0.000014
  148  O  9  Y   -0.000091  -0.001111  -0.000261  -0.001445  -0.000186
  149  O  9  Z   -0.000030  -0.000332  -0.000044  -0.000336  -0.000038
  150  O  9  S   -0.006231   0.043843  -0.007439  -0.008867  -0.006016
  151  O  9  X   -0.001727   0.000004  -0.000951  -0.000727  -0.000008
  152  O  9  Y   -0.002174   0.002795  -0.002872  -0.004097  -0.002427
  153  O  9  Z   -0.000585   0.000836  -0.000806  -0.000884  -0.000711
  154  O  9  S   -0.006650  -0.015972   0.001481  -0.016461  -0.001312
  155  O  9  X    0.000483   0.001675   0.001194  -0.000715  -0.000320
  156  O  9  Y   -0.001293  -0.001073   0.001036  -0.004866   0.000431
  157  O  9  Z   -0.000283  -0.000593   0.000116  -0.001454   0.000251
  158  O  9 XX   -0.000008  -0.007139   0.000071  -0.000055   0.000006
  159  O  9 YY    0.000028  -0.006948   0.000065   0.000194   0.000016
  160  O  9 ZZ   -0.000030  -0.007124   0.000001  -0.000060  -0.000058
  161  O  9 XY    0.000042   0.000089   0.000043   0.000097  -0.000043
  162  O  9 XZ    0.000008   0.000030   0.000007   0.000020  -0.000019
  163  O  9 YZ    0.000024   0.000061   0.000020   0.000062   0.000026
  164  O  9 XX    0.000183  -0.014086   0.000091   0.000927   0.000234
  165  O  9 YY   -0.000018  -0.014050   0.000130  -0.001558  -0.000021
  166  O  9 ZZ    0.000314  -0.014016   0.000569   0.000995   0.000533
  167  O  9 XY   -0.000264  -0.000122  -0.000388  -0.001051   0.000187
  168  O  9 XZ   -0.000060  -0.000040  -0.000072  -0.000236   0.000087
  169  O  9 YZ   -0.000129  -0.000017  -0.000124  -0.000720  -0.000192
  170  O 10  S    0.552753   0.000036   0.000000  -0.000043  -0.000014
  171  O 10  S    0.462947   0.000013  -0.000003  -0.000144  -0.000035
  172  O 10  X   -0.000278  -0.000024   0.000058   0.000103  -0.000131
  173  O 10  Y   -0.001344  -0.000007  -0.000023  -0.000184   0.000012
  174  O 10  Z   -0.000492   0.000000  -0.000008  -0.000059   0.000009
  175  O 10  S    0.020399   0.000370  -0.000007   0.000749   0.001271
  176  O 10  X    0.000305   0.000163  -0.000205  -0.000312  -0.000066
  177  O 10  Y    0.000958  -0.000050   0.000103   0.000592  -0.000061
  178  O 10  Z    0.000377  -0.000032   0.000029   0.000189  -0.000018
  179  O 10  S    0.045553  -0.003355  -0.001932  -0.002917  -0.003490
  180  O 10  X   -0.001932  -0.003915  -0.001939  -0.000484   0.001424
  181  O 10  Y   -0.000987   0.001929   0.001033   0.001168  -0.000555
  182  O 10  Z   -0.000291   0.001047   0.000622   0.000258  -0.000271
  183  O 10  S   -0.020705  -0.013313   0.010854  -0.017921  -0.010105
  184  O 10  X    0.003271  -0.004708   0.000914   0.002272   0.007868
  185  O 10  Y   -0.000464   0.004725  -0.001936   0.005027   0.000245
  186  O 10  Z   -0.000207   0.001547  -0.001607   0.001698  -0.000168
  187  O 10 XX   -0.007177  -0.000036   0.000037  -0.000059   0.000138
  188  O 10 YY   -0.007320   0.000040   0.000002  -0.000033  -0.000094
  189  O 10 ZZ   -0.007403  -0.000025  -0.000005  -0.000114  -0.000053
  190  O 10 XY   -0.000164  -0.000043  -0.000018  -0.000089   0.000042
  191  O 10 XZ   -0.000077  -0.000011  -0.000019  -0.000032   0.000002
  192  O 10 YZ    0.000057   0.000038   0.000007   0.000023  -0.000022
  193  O 10 XX   -0.015529   0.000203  -0.000443  -0.000545  -0.000890
  194  O 10 YY   -0.014934  -0.000196   0.000021  -0.000841   0.001060
  195  O 10 ZZ   -0.014829   0.000195   0.000046   0.000269   0.000781
  196  O 10 XY    0.000551   0.000315   0.000211   0.001197  -0.000339
  197  O 10 XZ    0.000279   0.000103   0.000159   0.000439  -0.000024
  198  O 10 YZ   -0.000127  -0.000225  -0.000047  -0.000478   0.000149
  199  C 11  S   -0.000036   0.000005   0.000002  -0.000027   0.565420
  200  C 11  S    0.000151  -0.000023  -0.000011  -0.000006   0.452982
  201  C 11  X   -0.000046   0.000031  -0.000010  -0.000028   0.001026
  202  C 11  Y   -0.000073   0.000027  -0.000005  -0.000106   0.000029
  203  C 11  Z   -0.000021   0.000011  -0.000003  -0.000028  -0.000035
  204  C 11  S    0.003936   0.001704   0.001055  -0.003854   0.015908
  205  C 11  X    0.000330  -0.000180   0.000102  -0.000380  -0.000495
  206  C 11  Y    0.000216  -0.000093   0.000005   0.000511  -0.000073
  207  C 11  Z    0.000058  -0.000039  -0.000004   0.000186   0.000007
  208  C 11  S   -0.018693  -0.007431  -0.004737   0.014311   0.115413
  209  C 11  X   -0.002506  -0.002244  -0.001276   0.003548   0.000637
  210  C 11  Y   -0.000270   0.001037  -0.000338  -0.001977  -0.000555
  211  C 11  Z    0.000056   0.000088   0.000721  -0.000944  -0.000146
  212  C 11  S    0.054831   0.004346  -0.006228   0.026683  -0.030228
  213  C 11  X    0.008101   0.004633  -0.000368   0.000231   0.006354
  214  C 11  Y   -0.002852  -0.010121  -0.008724  -0.001508   0.000939
  215  C 11  Z   -0.002273  -0.000242   0.000655  -0.002313  -0.001306
  216  C 11 XX    0.000659  -0.000012   0.000066  -0.000170  -0.012511
  217  C 11 YY    0.000137  -0.000031   0.000002  -0.000031  -0.012393
  218  C 11 ZZ    0.000210  -0.000014  -0.000024   0.000066  -0.012470
  219  C 11 XY   -0.000005  -0.000013  -0.000024   0.000119  -0.000023
  220  C 11 XZ   -0.000028   0.000005  -0.000003   0.000046  -0.000007
  221  C 11 YZ   -0.000030  -0.000001   0.000014  -0.000065   0.000030
  222  C 11 XX    0.003451   0.000447   0.000270  -0.001284  -0.027045
  223  C 11 YY    0.003041   0.001282   0.000575  -0.002061  -0.028369
  224  C 11 ZZ    0.002408   0.000786   0.000603  -0.002569  -0.027651
  225  C 11 XY    0.000525  -0.000278   0.000196  -0.000313   0.000447
  226  C 11 XZ    0.000201  -0.000170   0.000004  -0.000086   0.000140
  227  C 11 YZ    0.000213   0.000208  -0.000097   0.000358  -0.000294
  228  C 12  S   -0.000027  -0.000003   0.000003  -0.000023   0.000689
  229  C 12  S    0.000116   0.000014  -0.000012   0.000073   0.000602
  230  C 12  X    0.000098  -0.000024  -0.000019  -0.000004   0.000062
  231  C 12  Y   -0.000029  -0.000018   0.000008  -0.000003  -0.000187
  232  C 12  Z   -0.000007  -0.000003   0.000006   0.000006  -0.000057
  233  C 12  S   -0.000892   0.000787   0.000489   0.000569   0.005234
  234  C 12  X   -0.000189   0.000096   0.000131   0.000020   0.000009
  235  C 12  Y    0.000030   0.000112  -0.000101   0.000041  -0.000060
  236  C 12  Z   -0.000002   0.000024  -0.000045  -0.000017  -0.000011
  237  C 12  S    0.003640  -0.003760  -0.000762  -0.002179  -0.018025
  238  C 12  X    0.001461  -0.000749  -0.000574  -0.000002  -0.000376
  239  C 12  Y   -0.000581   0.000741  -0.000228  -0.000157   0.004100
  240  C 12  Z   -0.000257   0.000314  -0.000065  -0.000062   0.001144
  241  C 12  S   -0.007191   0.010002   0.013521  -0.008365   0.007015
  242  C 12  X   -0.002143   0.000374   0.000869  -0.001058  -0.000260
  243  C 12  Y    0.001408  -0.001731  -0.002803   0.002065  -0.002303
  244  C 12  Z    0.000474  -0.000551  -0.001067   0.000751  -0.000607
  245  C 12 XX    0.000153   0.000031   0.000007   0.000074   0.000137
  246  C 12 YY    0.000118   0.000008  -0.000009   0.000052  -0.000250
  247  C 12 ZZ    0.000075   0.000001  -0.000024   0.000099   0.000157
  248  C 12 XY    0.000048  -0.000015  -0.000024   0.000037   0.000163
  249  C 12 XZ    0.000009  -0.000004  -0.000010   0.000009   0.000047
  250  C 12 YZ    0.000016   0.000001   0.000005  -0.000017  -0.000148
  251  C 12 XX   -0.001104   0.000504   0.000053   0.000491   0.002693
  252  C 12 YY   -0.000052   0.000289   0.000323   0.000544   0.001633
  253  C 12 ZZ    0.000169   0.000507   0.000264   0.000674   0.003064
  254  C 12 XY    0.000198   0.000033   0.000165  -0.000119   0.000460
  255  C 12 XZ    0.000094   0.000017   0.000066  -0.000040   0.000164
  256  C 12 YZ   -0.000128  -0.000049   0.000031  -0.000006  -0.000546
  257  C 13  S   -0.000006   0.000003   0.000000   0.000003   0.000679
  258  C 13  S    0.000024  -0.000013  -0.000001   0.000001   0.000596
  259  C 13  X   -0.000002  -0.000020  -0.000035   0.000013   0.000038
  260  C 13  Y   -0.000002   0.000009   0.000010  -0.000022   0.000184
  261  C 13  Z    0.000003   0.000017   0.000003  -0.000014  -0.000159
  262  C 13  S   -0.000068  -0.000304   0.000641   0.001384   0.005477
  263  C 13  X    0.000251  -0.000003   0.000166   0.000265   0.000157
  264  C 13  Y    0.000157  -0.000059  -0.000070   0.000157  -0.000306
  265  C 13  Z   -0.000188   0.000037   0.000018  -0.000192   0.000095
  266  C 13  S    0.001384   0.002418  -0.002406  -0.005164  -0.020851
  267  C 13  X    0.001359   0.001621  -0.000651  -0.000706  -0.000898
  268  C 13  Y   -0.000089   0.000801   0.000214   0.000486  -0.003938
  269  C 13  Z   -0.000159  -0.000222   0.000338   0.000943   0.003692
  270  C 13  S   -0.013943  -0.012796  -0.008603  -0.003942   0.010191
  271  C 13  X   -0.002732  -0.002688  -0.000768  -0.000393  -0.000410
  272  C 13  Y   -0.001857  -0.000122  -0.001008   0.000014   0.002284
  273  C 13  Z    0.002356   0.002507   0.001445   0.000706  -0.002308
  274  C 13 XX    0.000083  -0.000045   0.000021   0.000041   0.000143
  275  C 13 YY    0.000030   0.000012  -0.000015   0.000039  -0.000049
  276  C 13 ZZ    0.000023  -0.000020  -0.000003   0.000049  -0.000070
  277  C 13 XY    0.000023  -0.000038  -0.000012   0.000016  -0.000136
  278  C 13 XZ   -0.000015   0.000033  -0.000014  -0.000078   0.000120
[...]
   9  A         -479.3842028088    5.411    -0.0325  0.0378  0.0851    0.0013
  10  A         -479.3809154311    5.500     0.0875 -0.1141 -0.0048    0.0028
  11  A         -479.3752942769    5.653     0.0911  0.0680  0.0032    0.0018
  12  A         -479.3719548655    5.744     0.0390 -0.1064 -0.0210    0.0019
  13  A         -479.3651091639    5.930    -0.0041 -0.1207 -0.0173    0.0022
  14  A         -479.3606927610    6.050     0.0059 -0.0347 -0.1577    0.0039
  15  A         -479.3581537205    6.119    -0.1342  0.2572  0.0013    0.0126
  16  A         -479.3517677862    6.293     0.0611  0.0431 -0.0906    0.0021
  17  A         -479.3469704277    6.424    -0.0179  0.0820 -0.1375    0.0041
  18  A         -479.3418527063    6.563    -0.1932 -0.0464  0.0775    0.0073
  19  A         -479.3351995242    6.744    -0.3626  0.2949  0.1357    0.0391
  20  A         -479.3295033331    6.899     0.1303 -0.3223  0.2676    0.0325
  
 TRANSITION        EXCITATION            TRANSITION DIPOLE, A.U.     OSCILLATOR
                       EV              X       Y       Z       DIP    STRENGTH

  1  ->  2           1.085         -1.9043 -0.6862 -0.1913   2.0332    0.1099
  1  ->  3           1.090          0.3920 -0.3262 -1.0677   1.1832    0.0374
  1  ->  4           1.583         -0.0648  0.2587  0.3776   0.4622    0.0083
  1  ->  5           1.761         -0.3047 -0.2356  0.0678   0.3911    0.0066
  1  ->  6           2.132          0.4777  0.0553  0.0154   0.4812    0.0121
  1  ->  7           2.208          0.6143  0.0373 -0.0496   0.6174    0.0206
  1  ->  8           2.322          0.1199  0.1166  0.2332   0.2869    0.0047
  1  ->  9           2.461         -0.1167 -0.2447 -0.0376   0.2737    0.0045
  1  -> 10           2.551         -0.2105  0.1669  0.2547   0.3702    0.0086
  1  -> 11           2.704         -0.1217 -0.2118  0.0356   0.2469    0.0040
  1  -> 12           2.795         -0.1571 -0.3510  0.0827   0.3933    0.0106
  1  -> 13           2.981          0.0948  0.0361  0.2226   0.2447    0.0044
  1  -> 14           3.101          0.0410 -0.4019 -0.0126   0.4042    0.0124
  1  -> 15           3.170          0.5022  0.0534  0.2058   0.5454    0.0231
  1  -> 16           3.344          0.1539 -0.1840 -0.4359   0.4976    0.0203
  1  -> 17           3.474         -0.0916  0.3827  0.4427   0.5923    0.0299
  1  -> 18           3.614          0.0867 -0.5277  0.3567   0.6428    0.0366
  1  -> 19           3.795         -0.0048  0.1242 -0.0214   0.1261    0.0015
  1  -> 20           3.950          0.4059  0.1262  0.1257   0.4432    0.0190
  2  ->  3           0.005         -0.2592  0.5478  1.8872   1.9821    0.0005
  2  ->  4           0.497         -0.6955  0.0014 -0.6346   0.9415    0.0108
  2  ->  5           0.676         -0.1397  0.4913 -0.1525   0.5331    0.0047
  2  ->  6           1.047         -0.2892  0.1628  0.1006   0.3468    0.0031
  2  ->  7           1.122         -0.5306  0.3171  0.6309   0.8832    0.0215
  2  ->  8           1.237          0.1096  0.1423 -0.4235   0.4600    0.0064
  2  ->  9           1.376          0.2027  0.3111  0.6134   0.7170    0.0173
  2  -> 10           1.466          0.2383 -0.3054 -0.2844   0.4805    0.0083
  2  -> 11           1.619         -0.0117 -0.0972  0.0106   0.0985    0.0004
  2  -> 12           1.709         -0.3468  0.6925 -0.4329   0.8872    0.0330
  2  -> 13           1.896          0.5520  0.0201 -0.3579   0.6582    0.0201
  2  -> 14           2.016         -0.1087  0.5039 -0.0576   0.5187    0.0133
  2  -> 15           2.085         -0.1881  0.2528 -0.3096   0.4417    0.0100
  2  -> 16           2.259          0.3384  0.5850  0.4128   0.7919    0.0347
  2  -> 17           2.389          0.3648 -0.5380 -0.2382   0.6923    0.0281
  2  -> 18           2.529         -0.3659  1.1196 -1.0475   1.5763    0.1539
  2  -> 19           2.710         -0.0456 -0.1527  0.0588   0.1698    0.0019
  2  -> 20           2.865         -1.0791 -0.4252 -0.1134   1.1654    0.0953
  3  ->  4           0.492         -4.3808  0.3701  0.1547   4.3992    0.2334
  3  ->  5           0.670          0.0148  3.6781 -1.1934   3.8669    0.2456
  3  ->  6           1.042          0.0728  0.6126  1.8020   1.9046    0.0926
  3  ->  7           1.117          0.1113  0.5673  1.4827   1.5914    0.0693
  3  ->  8           1.232         -0.1244  0.0852  0.1160   0.1903    0.0011
  3  ->  9           1.371          0.4354  0.3398 -0.0027   0.5523    0.0102
  3  -> 10           1.460          0.4232 -0.0041  0.0488   0.4260    0.0065
  3  -> 11           1.613          0.0040  0.0189  0.0319   0.0373    0.0001
  3  -> 12           1.704          0.1624 -0.2667 -0.2230   0.3837    0.0061
  3  -> 13           1.891          0.0333 -0.0767 -0.5247   0.5314    0.0131
  3  -> 14           2.011         -0.0667 -0.1095 -0.0954   0.1598    0.0013
  3  -> 15           2.080         -0.1462  0.1771  0.8775   0.9071    0.0419
  3  -> 16           2.254          0.1926  0.1603  0.1690   0.3023    0.0050
  3  -> 17           2.384          0.1696  0.3616  0.6137   0.7322    0.0313
  3  -> 18           2.523          0.1047 -0.1978  0.0660   0.2333    0.0034
  3  -> 19           2.704          0.0222  0.0010 -0.1030   0.1054    0.0007
  3  -> 20           2.859          0.3088 -0.2295 -0.8489   0.9320    0.0608
  4  ->  5           0.178         -0.0178  0.0665 -0.1990   0.2106    0.0002
  4  ->  6           0.549         -4.0690  0.1862  1.8720   4.4828    0.2705
  4  ->  7           0.625          3.8964  0.4017  1.6468   4.2492    0.2765
  4  ->  8           0.740         -1.5775  2.9237 -0.6816   3.3913    0.2085
  4  ->  9           0.879          1.0436  1.7450 -0.4502   2.0825    0.0934
  4  -> 10           0.968          0.4138 -0.7170  0.0222   0.8281    0.0163
  4  -> 11           1.121         -0.0262  0.0344 -0.0456   0.0628    0.0001
  4  -> 12           1.212          0.2183 -0.4236  0.5604   0.7356    0.0161
  4  -> 13           1.398         -0.0960  0.2690  0.4644   0.5452    0.0102
  4  -> 14           1.519          0.0586 -0.1224  0.3083   0.3368    0.0042
  4  -> 15           1.588          0.0321 -0.2647 -0.8263   0.8682    0.0293
  4  -> 16           1.761          0.1746  0.1152 -0.4674   0.5120    0.0113
  4  -> 17           1.892          0.1542 -0.2578 -0.5001   0.5834    0.0158
  4  -> 18           2.031          0.2707  0.0715  0.3347   0.4364    0.0095
  4  -> 19           2.212         -0.0285  0.0520  0.0894   0.1073    0.0006
  4  -> 20           2.367         -0.2011  0.5221  1.0473   1.1873    0.0818
  5  ->  6           0.371          0.9643 -0.5058  0.0311   1.0893    0.0108
  5  ->  7           0.447         -0.0034  1.0227 -0.4323   1.1104    0.0135
  5  ->  8           0.562         -3.2363  2.0140 -0.1217   3.8138    0.2001
  5  ->  9           0.701         -2.0427 -1.9117  1.0268   2.9802    0.1524
  5  -> 10           0.790          0.9018  2.3373 -1.0309   2.7090    0.1420
  5  -> 11           0.943         -0.0421  0.0498 -0.1423   0.1566    0.0006
  5  -> 12           1.034          0.7041  1.1438  1.8101   2.2540    0.1287
  5  -> 13           1.220         -0.0324 -0.6033  0.2962   0.6729    0.0135
  5  -> 14           1.340          0.0717 -0.4726  1.2242   1.3143    0.0567
  5  -> 15           1.409         -0.3122 -0.0989  0.5470   0.6376    0.0140
  5  -> 16           1.583         -0.3021  0.4227  0.1368   0.5372    0.0112
  5  -> 17           1.714          0.1075 -0.2927 -0.3967   0.5046    0.0107
  5  -> 18           1.853         -0.1166  0.6392  1.0461   1.2314    0.0688
  5  -> 19           2.034          0.0028 -0.0764 -0.1672   0.1839    0.0017
  5  -> 20           2.189         -0.1050 -0.1356 -0.3387   0.3796    0.0077
  6  ->  7           0.076         -0.6467 -0.1051  0.0583   0.6578    0.0008
  6  ->  8           0.190         -0.4238  0.3927 -0.0393   0.5792    0.0016
  6  ->  9           0.329         -0.7964  0.5995 -0.7350   1.2385    0.0124
  6  -> 10           0.419         -1.3740 -0.4815 -1.5816   2.1497    0.0474
  6  -> 11           0.572          0.0056 -0.0940 -0.0111   0.0948    0.0001
  6  -> 12           0.663         -0.1530  2.3916 -0.7530   2.5120    0.1024
  6  -> 13           0.849         -0.7272 -1.2062  0.2349   1.4279    0.0424
  6  -> 14           0.969         -1.0407 -0.2667  0.7986   1.3387    0.0425
  6  -> 15           1.038          2.1996 -0.8664 -2.7033   3.5912    0.3280
  6  -> 16           1.212         -0.1527 -1.1577  0.2047   1.1855    0.0417
  6  -> 17           1.343          1.7547  0.1841  0.6683   1.8867    0.1171
  6  -> 18           1.482          0.7753 -0.1699  0.2531   0.8331    0.0252
  6  -> 19           1.663          0.0726 -0.0302 -0.1073   0.1330    0.0007
  6  -> 20           1.818          0.3127 -0.4553 -0.7860   0.9607    0.0411
  7  ->  8           0.115         -0.3868  0.6730 -0.3322   0.8443    0.0020
  7  ->  9           0.254          0.4604 -0.5071 -0.7542   1.0188    0.0065
  7  -> 10           0.343          1.6745 -0.6213 -1.8307   2.5577    0.0550
  7  -> 11           0.496          0.0115 -0.0676  0.0073   0.0690    0.0001
  7  -> 12           0.587         -0.2667  1.0953 -0.6070   1.2803    0.0236
  7  -> 13           0.773         -2.5988  0.0623 -2.6083   3.6825    0.2569
  7  -> 14           0.893          0.3831  2.1407 -0.2985   2.1951    0.1055
  7  -> 15           0.963          0.9629  0.4912 -0.2987   1.1215    0.0297
  7  -> 16           1.136          0.9051  1.0358  0.4337   1.4423    0.0579
  7  -> 17           1.267         -1.4136  0.8227  0.7004   1.7792    0.0982
  7  -> 18           1.406         -0.4106 -0.2917  0.9427   1.0688    0.0394
  7  -> 19           1.587         -0.0353  0.0446  0.0397   0.0694    0.0002
  7  -> 20           1.742          0.0825  0.4675  0.8070   0.9363    0.0374
  8  ->  9           0.139         -1.4118 -0.0934  0.2587   1.4384    0.0070
  8  -> 10           0.228          1.2448 -1.4293 -0.0407   1.8958    0.0201
  8  -> 11           0.381          0.0162 -0.0818 -0.0223   0.0863    0.0001
  8  -> 12           0.472         -2.3265  1.6001  1.2099   3.0720    0.1092
  8  -> 13           0.659          0.5550  1.0779 -0.1770   1.2252    0.0242
  8  -> 14           0.779          3.2262 -2.0799  0.9399   3.9520    0.2980
  8  -> 15           0.848          0.3533  0.1622 -0.7606   0.8541    0.0152
  8  -> 16           1.022          0.8912  1.0107 -0.2615   1.3726    0.0472
  8  -> 17           1.152          0.8172  0.0771  0.7845   1.1354    0.0364
  8  -> 18           1.291          0.1900 -0.5015 -1.1408   1.2605    0.0503
  8  -> 19           1.472          0.0504  0.0536  0.1203   0.1411    0.0007
  8  -> 20           1.627          0.4787  0.7262 -0.0200   0.8700    0.0302
  9  -> 10           0.089         -1.3549 -0.7893  0.2227   1.5838    0.0055
  9  -> 11           0.242          0.0244 -0.0229 -0.0101   0.0349    0.0000
  9  -> 12           0.333         -0.5069  0.7394  0.8869   1.2610    0.0130
  9  -> 13           0.520          1.2516  1.0651 -1.2001   2.0350    0.0527
  9  -> 14           0.640          0.5443 -0.5786  0.6288   1.0131    0.0161
  9  -> 15           0.709          0.4517  0.4430  0.6540   0.9099    0.0144
  9  -> 16           0.883          2.2322  1.2921 -0.7852   2.6961    0.1572
  9  -> 17           1.013         -0.2261  0.1683  0.7261   0.7789    0.0151
  9  -> 18           1.152          0.0636 -0.5166 -0.8841   1.0259    0.0297
  9  -> 19           1.333         -0.0789  0.0493  0.0617   0.1116    0.0004
  9  -> 20           1.488         -0.4700 -0.3986 -0.0802   0.6215    0.0141
 10  -> 11           0.153         -0.0604 -0.0110  0.0074   0.0619    0.0000
 10  -> 12           0.244          0.3325 -0.5796 -0.1863   0.6937    0.0029
 10  -> 13           0.430         -2.7005  0.1881  0.3622   2.7312    0.0786
 10  -> 14           0.550         -0.1603  0.5813 -0.6751   0.9052    0.0110
 10  -> 15           0.619         -1.3116 -0.2072 -0.1766   1.3396    0.0272
 10  -> 16           0.793         -1.0268 -0.2889  0.7748   1.3183    0.0338
 10  -> 17           0.924          0.6201 -0.3827 -0.0284   0.7293    0.0120
 10  -> 18           1.063         -0.1183 -0.1126  0.2917   0.3343    0.0029
 10  -> 19           1.244          0.0090  0.0002 -0.0547   0.0554    0.0001
 10  -> 20           1.399         -0.4647  0.6973 -0.7663   1.1355    0.0442
 11  -> 12           0.091          0.2731  0.0630 -0.0056   0.2803    0.0002
 11  -> 13           0.277          0.0288  0.0662  0.0153   0.0738    0.0000
 11  -> 14           0.397          0.1621  0.0126 -0.0039   0.1627    0.0003
 11  -> 15           0.466         -0.0442 -0.0163 -0.0198   0.0511    0.0000
 11  -> 16           0.640         -0.0089 -0.0686  0.0104   0.0700    0.0001
 11  -> 17           0.771          0.0041 -0.1004 -0.0165   0.1019    0.0002
 11  -> 18           0.910         -0.0434  0.0446 -0.0249   0.0670    0.0001
 11  -> 19           1.091          0.0834 -0.1132 -0.0545   0.1508    0.0006
 11  -> 20           1.246          0.1583  0.1180  0.0013   0.1974    0.0012
 12  -> 13           0.186         -0.5172 -0.5941 -0.1658   0.8050    0.0030
 12  -> 14           0.306         -0.6650 -0.5695 -0.4836   1.0002    0.0075
 12  -> 15           0.376         -0.3546 -0.9009  0.2743   1.0063    0.0093
 12  -> 16           0.549         -0.6681  1.6425  0.1479   1.7794    0.0426
 12  -> 17           0.680         -1.3873  0.9620  0.6170   1.7974    0.0538
 12  -> 18           0.819          3.0755 -0.9467 -0.1914   3.2235    0.2085
 12  -> 19           1.000         -0.2556  0.1357  0.0903   0.3031    0.0023
 12  -> 20           1.155         -0.5640  0.4509 -0.2065   0.7510    0.0160
 13  -> 14           0.120          0.3408 -0.2196 -0.3253   0.5198    0.0008
 13  -> 15           0.189          0.5712  0.2840 -0.6054   0.8795    0.0036
 13  -> 16           0.363          0.4664 -0.2786  1.2451   1.3585    0.0164
 13  -> 17           0.494          1.1932  0.4879  0.1171   1.2944    0.0203
 13  -> 18           0.633          0.8527 -0.0666  0.8368   1.1966    0.0222
 13  -> 19           0.814          0.1719  0.0186 -0.0610   0.1833    0.0007
 13  -> 20           0.969          2.2511  0.2782  0.1750   2.2750    0.1229
 14  -> 15           0.069         -0.4694  0.0078 -0.0010   0.4694    0.0004
 14  -> 16           0.243          1.5425 -0.0267 -0.7996   1.7376    0.0180
 14  -> 17           0.373         -1.5101  0.9450 -0.3582   1.8171    0.0302
 14  -> 18           0.513          0.5087  0.6341  0.8986   1.2117    0.0184
 14  -> 19           0.694          0.1043 -0.0465 -0.1237   0.1684    0.0005
 14  -> 20           0.849          0.2062 -0.1018 -0.8653   0.8953    0.0167
 15  -> 16           0.174          0.2555  0.7123  0.3261   0.8240    0.0029
 15  -> 17           0.304          1.8182 -0.7805 -0.3068   2.0023    0.0299
 15  -> 18           0.444          1.1987  1.9347 -0.8176   2.4183    0.0636
 15  -> 19           0.625         -0.2113 -0.2265  0.1591   0.3482    0.0019
 15  -> 20           0.780         -1.0137 -0.4107  0.3876   1.1604    0.0257
 16  -> 17           0.131         -1.1027  0.3833 -0.2816   1.2009    0.0046
 16  -> 18           0.270         -0.8368  0.5096  0.0010   0.9797    0.0063
 16  -> 19           0.451         -0.0651 -0.0642 -0.0651   0.1122    0.0001
 16  -> 20           0.606         -1.1632  0.1015 -0.6286   1.3261    0.0261
 17  -> 18           0.139         -0.3243  0.6375 -0.2045   0.7439    0.0019
 17  -> 19           0.320         -0.2885 -0.0078  0.0495   0.2928    0.0007
 17  -> 20           0.475         -0.9142  0.5440  0.4775   1.1661    0.0158
 18  -> 19           0.181          0.7459 -0.1386  0.0420   0.7598    0.0026
 18  -> 20           0.336          0.5754 -1.1266  0.6299   1.4132    0.0164
 19  -> 20           0.155         -0.6411  0.1529  0.0855   0.6646    0.0017

 SELECTING EXCITED STATE IROOT=   1 AT E=     -479.4746533871
 AS THE STATE OF INTEREST.

 ..... DONE WITH TD-DFT EXCITATION ENERGIES .....
 CPU     0: STEP CPU TIME=  5897.67 TOTAL CPU TIME=       6018.8 (    100.3 MIN)
 TOTAL WALL CLOCK TIME=       6200.8 SECONDS, CPU UTILIZATION IS    97.07%

             ----------------------------------------------
             -------   RESULTS OF SMD CALCULATION   -------
             ----------------------------------------------
                     COMPUTED FOR THE GROUND STATE         

 INTERNAL ENERGY IN SOLVENT = <PSI| H(0) |PSI>       =     -479.5729812967 A.U.
 TOTAL ENERGY IN SOLVENT = <PSI| H(0)+V/2 |PSI>      =     -479.5834072628 A.U.
 ELECTROSTATIC INTERACTION <PSI| V/2 |PSI>           =       -0.0104259661 A.U.
 CDS INTERACTION                                     =        0.0003709025 A.U.
 TOTAL FREE ENERGY IN SOLVENT                        =     -479.5830363603 A.U.

 ELECTROSTATIC INTERACTION    =          -6.54 KCAL/MOL
 CDS INTERACTION              =           0.23 KCAL/MOL

 .... DONE PRINTING SMD SOLVENT SUMMARY ....
 CPU     0: STEP CPU TIME=     0.00 TOTAL CPU TIME=       6018.8 (    100.3 MIN)
 TOTAL WALL CLOCK TIME=       6200.8 SECONDS, CPU UTILIZATION IS    97.07%
             61723949  WORDS OF DYNAMIC MEMORY USED
 EXECUTION OF GAMESS TERMINATED NORMALLY Sat Oct 22 19:52:13 2022
 DDI: 263640 bytes (0.3 MB / 0 MWords) used by master data server.
Note: The following floating-point exceptions are signalling: IEEE_UNDERFLOW_FLAG IEEE_DENORMAL
Note: The following floating-point exceptions are signalling: IEEE_UNDERFLOW_FLAG IEEE_DENORMAL
Note: The following floating-point exceptions are signalling: IEEE_UNDERFLOW_FLAG IEEE_DENORMAL
Note: The following floating-point exceptions are signalling: IEEE_UNDERFLOW_FLAG IEEE_DENORMAL
Note: The following floating-point exceptions are signalling: IEEE_UNDERFLOW_FLAG IEEE_DENORMAL

 ----------------------------------------
 CPU timing information for all processes
 ========================================
 0: 5984.705 + 34.192 = 6018.898
 1: 5985.567 + 34.284 = 6019.852
 2: 5984.999 + 33.541 = 6018.541
 3: 5984.335 + 33.554 = 6017.889
 4: 5984.578 + 33.657 = 6018.235
 5: 5986.401 + 33.40 = 6019.441
 6: 5.495 + 60.661 = 66.156
 7: 0.02 + 0.02 = 0.04
 8: 0.02 + 0.02 = 0.04
 9: 0.02 + 0.02 = 0.04
 10: 0.02 + 0.02 = 0.05
 11: 0.01 + 0.02 = 0.04
 ----------------------------------------
Note: The following floating-point exceptions are signalling: IEEE_UNDERFLOW_FLAG IEEE_DENORMAL
 ddikick.x: exited gracefully.
unset echo
----- accounting info -----
Files used on the master node Samuels-MBP.attlocal.net were:
-rw-r--r-- 1 Sammy staff   234060 Oct 22 18:08 /Users/Sammy/gamess/scratch/boc_azomethine_ylide_tddft_s_states_mecn.F05
-rw-r--r-- 1 Sammy staff 15182080 Oct 22 19:52 /Users/Sammy/gamess/scratch/boc_azomethine_ylide_tddft_s_states_mecn.F10
-rw-r--r-- 1 Sammy staff  3900760 Oct 22 18:10 /Users/Sammy/gamess/scratch/boc_azomethine_ylide_tddft_s_states_mecn.F22
-rw-r--r-- 1 Sammy staff  3900760 Oct 22 18:10 /Users/Sammy/gamess/scratch/boc_azomethine_ylide_tddft_s_states_mecn.F22.001
-rw-r--r-- 1 Sammy staff  3900760 Oct 22 18:10 /Users/Sammy/gamess/scratch/boc_azomethine_ylide_tddft_s_states_mecn.F22.002
-rw-r--r-- 1 Sammy staff  3900760 Oct 22 18:10 /Users/Sammy/gamess/scratch/boc_azomethine_ylide_tddft_s_states_mecn.F22.003
-rw-r--r-- 1 Sammy staff  3900760 Oct 22 18:10 /Users/Sammy/gamess/scratch/boc_azomethine_ylide_tddft_s_states_mecn.F22.004
-rw-r--r-- 1 Sammy staff  3900760 Oct 22 18:10 /Users/Sammy/gamess/scratch/boc_azomethine_ylide_tddft_s_states_mecn.F22.005
-rw-r--r-- 1 Sammy staff        8 Oct 22 19:52 /Users/Sammy/gamess/scratch/boc_azomethine_ylide_tddft_s_states_mecn.F26
-rw-r--r-- 1 Sammy staff        0 Oct 22 18:08 /Users/Sammy/gamess/scratch/boc_azomethine_ylide_tddft_s_states_mecn.F27
ls: No match.
ls: No match.
ls: No match.
Sat Oct 22 19:52:16 CDT 2022
5990.355u 94.992s 1:43:24.33 98.0%	0+0k 0+0io 223pf+0w
