----- GAMESS execution script 'rungms' -----
This job is running on host Samuels-MBP.attlocal.net
under operating system Darwin at Sat Oct 22 16:39:04 CDT 2022
Available scratch disk space (Kbyte units) at beginning of the job is
Filesystem     1K-blocks      Used Available Use% Mounted on
/dev/disk1s5s1 244912536 151379748  74140476  68% /
GAMESS temporary binary files will be written to /Users/Sammy/gamess/scratch
GAMESS supplementary output files will be written to /Users/Sammy/gamess/
Copying input file input_files/oxetanone/ylide_tddft_s_states_mecn.inp to your run's scratch directory...
cp input_files/oxetanone/ylide_tddft_s_states_mecn.inp /Users/Sammy/gamess/scratch/ylide_tddft_s_states_mecn.F05
unset echo
 
Assuming a single but multicore node.
 
/Users/Sammy/gamess//ddikick.x /Users/Sammy/gamess//gamess.30Jun2020R1.x ylide_tddft_s_states_mecn -ddi 6 6 localhost localhost localhost localhost localhost localhost -scr /Users/Sammy/gamess/scratch

 Distributed Data Interface kickoff program.
 Initiating 6 compute processes on 6 nodes to run the following command:
 /Users/Sammy/gamess//gamess.30Jun2020R1.x ylide_tddft_s_states_mecn 

          *******************************************************
          *                                                     *
          *          GAMESS VERSION = 30 JUN 2020 (R1)          *
          *                                                     *
          *              doi.org/10.1063/5.0005188              *
          *                                                     *
          **************** 64 BIT APPLE VERSION *****************

  GAMESS HAS BEEN MADE POSSIBLE WITH IMPORTANT CONTRIBUTIONS FROM
  THE FOLLOWING INDIVIDUALS (IN ALPHABETICAL ORDER):

     IVANA ADAMOVIC, CHRISTINE AIKENS, TOMOKO AKAMA,
     YURI ALEXEEV, YURIKO AOKI, POOJA ARORA, TOSHIO ASADA,
     ANDREY ASADCHEV, KIM K. BALDRIDGE, PRADIPTA BANDYOPADHYAY,
     MARIA BARYSZ, ROB BELL, JONATHAN BENTZ, COLLEEN BERTONI,
     JERRY A. BOATZ, BRETT BODE, KURT BRORSEN, KURT R. BRORSEN,
     LAIMUTIS BYTAUTAS, CALEB CARLIN, LAURA CARRINGTON,
     GALINA CHABAN, BENOIT CHAMPAGNE, WEI CHEN, MAHITO CHIBA,
     DAN CHIPMAN, CHEOL HO CHOI, TANNER CULPITT, PAUL DAY,
     ALBERT DEFUSCO, NUWAN DESILVA, J. EMILIANO DEUSTUA,
     TIM DUDLEY, MICHEL DUPUIS, STEVEN T. ELBERT,
     DMITRI FEDOROV, ALEX FINDLATER, GRAHAM FLETCHER,
     MARK FREITAG, CHRISTIAN FRIEDL, DAVID GARMER,
     IGOR S. GERASIMOV, KURT GLAESEMANN, MARK S. GORDON,
     JEFFREY GOUR, FENG LONG GU, EMILIE B. GUIDEZ,
     ANASTASIA GUNINA, SHARON HAMMES-SCHIFFER, MASATAKE HARUTA,
     KIMIHIKO HIRAO, YASUHIRO IKABATA, TZVETELIN IORDANOV,
     STEPHAN IRLE, KAZUYA ISHIMURA, JOE IVANIC, FRANK JENSEN,
     JAN H. JENSEN, VISVALDAS KAIRYS, MUNEAKI KAMIYA,
     MICHIO KATOUDA, NAOAKI KAWAKAMI, DAN KEMP, BERNARD KIRTMAN,
     KAZUO KITAURA, MARIUSZ KLOBUKOWSKI, MASATO KOBAYASHI,
     PRAKASHAN KORAMBATH, JACEK KORCHOWIEC, SHIRO KOSEKI,
     KAROL KOWALSKI, JIMMY KROMANN, STANISLAW KUCHARSKI,
     HENRY KURTZ, SAROM SOK LEANG, HUI LI, SHUHUA LI, WEI LI,
     JESSE LUTZ, ALEKSANDR O. LYKHIN, MARCIN MAKOWSKI,
     JOANI MATO, NIKITA MATSUNAGA, BENEDETTA MENNUCCI,
     GRANT MERRILL, NORIYUKI MINEZAWA, VLADIMIR MIRONOV,
     EISAKU MIYOSHI, JOHN A. MONTGOMERY JR., HIROTOSHI MORI,
     JONATHAN MULLIN, MONIKA MUSIAL, SHIGERU NAGASE,
     TAKESHI NAGATA, HIROMI NAKAI, TAKAHITO NAKAJIMA,
     YUYA NAKAJIMA, HARUYUKI NAKANO, HIROYA NAKATA, SEAN NEDD,
     HEATHER NETZLOFF, KIET A. NGUYEN, YOSHIO NISHIMOTO,
     BOSILJKA NJEGIC, RYAN OLSON, MIKE PAK, ROBERTO PEVERATI,
     BUU PHAM, PIOTR PIECUCH, ANNA POMOGAEVA, DAVID POOLE,
     SPENCER PRUITT, OLIVIER QUINET, LUKE ROSKOP,
     KLAUS RUEDENBERG, ANDREW SAND, TOSAPORN SATTASATHUCHANA,
     NOZOMI SAWADA, MICHAEL W. SCHMIDT, PATRICK E. SCHNEIDER,
     JUNJI SEINO, PRACHI SHARMA, JUN SHEN, JIM SHOEMAKER,
     YINAN SHU, DEJUN SI, JONATHAN SKONE, LYUDMILA SLIPCHENKO,
     TONY SMITH, JIE SONG, MARK SPACKMAN, CASPER STEINMANN,
     WALT STEVENS, PEIFENG SU, SHUJUN SU, CHET SWALINA,
     TETSUYA TAKETSUGU, ZHEN TAO, NANDUN THELLAMUREGE
     SEIKEN TOKURA, JACOPO TOMASI, TSUGUKI TOUMA, TAKAO TSUNEDA,
     HIROAKI UMEDA, JORGE LUIS GALVEZ VALLEJO, YALI WANG,
     SIMON WEBB, AARON WEST, THERESA L. WINDUS, MARTA WLOCH,
     PENG XU, KIYOSHI YAGI, SUSUMU YANAGISAWA, YANG YANG,
     SOOHAENG YOO, TAKESHI YOSHIKAWA, FEDERICO ZAHARIEV,
     TOBY ZENG

  WHO ARE SUPPORTED BY THEIR INSTITUTION/UNIVERSITY/COMPANY/GROUP
  (IN ALPHABETICAL ORDER):

     EP ANALYTICS, FACULTES UNIVERSITAIRES NOTRE-DAME DE LA PAIX,
     INSTITUTE FOR MOLECULAR SCIENCE, IOWA STATE UNIVERSITY,
     JACKSON STATE UNIVERSITY, JOHANNES KEPLER UNIVERSITY LINZ,
     KYUSHU UNIVERSITY, MICHIGAN STATE UNIVERSITY,
     MIE UNIVERSITY, MOSCOW STATE UNIVERSITY,
     N. COPERNICUS UNIVERSITY, NAGOYA UNIVERSITY,
     NANJING UNIVERSITY, NAT. INST. OF ADVANCED INDUSTRIAL
     SCIENCE AND TECHNOLOGY, NATIONAL INST. OF STANDARDS AND
     TECHNOLOGY, NESMEYANOV INSTITUTE OF ORGANOELEMENT COMPOUNDS
     OF RUSSIAN ACADEMY OF SCIENCES, OSAKA PREFECTURE UNIVERSITY,
     PENNSYLVANIA STATE UNIVERSITY, TOKYO INSTITUTE OF TECHNOLOGY,
     UNIVERSITY OF AARHUS, UNIVERSITY OF ALBERTA,
     UNIVERSITY OF CALIFORNIA AT SANTA BARBARA,
     UNIVERSITY OF COPENHAGEN, UNIVERSITY OF IOWA,
     UNIVERSITY OF MEMPHIS, UNIVERSITY OF MINNESOTA,
     UNIVERSITY OF NEBRASKA, UNIVERSITY OF NEW ENGLAND,
     UNIVERSITY OF NOTRE DAME, UNIVERSITY OF PISA,
     UNIVERSITY OF SILESIA, UNIVERSITY OF TOKYO,
     UNIVERSITY OF ZURICH, WASEDA UNIVERSITY, YALE UNIVERSITY

  GAMESS SOFTWARE MANAGEMENT TEAM FOR THIS RELEASE:

     MARK S. GORDON (TEAM LEAD),
     BRETT BODE (SENIOR ADVISOR),
     GIUSEPPE BARCA,
     COLLEEN BERTONI,
     KRISTOPHER KEIPERT (ADVISOR),
     SAROM S. LEANG (DEVELOPMENT LEAD),
     BUU PHAM,
     JORGE LUIS GALVEZ VALLEJO (WEBSITE ADMINISTRATOR),
     PENG XU


 PARALLEL VERSION RUNNING ON        6 PROCESSORS IN        6 NODES.

 EXECUTION OF GAMESS BEGUN Sat Oct 22 16:39:04 2022

            ECHO OF THE FIRST FEW INPUT CARDS -
 INPUT CARD>!   File created by MacMolPlt 7.7                                               
 INPUT CARD> $CONTRL SCFTYP=RHF RUNTYP=ENERGY EXETYP=RUN                                    
 INPUT CARD> DFTTYP=B3LYP TDDFT=EXCITE $END                                                 
 INPUT CARD> $SYSTEM TIMLIM=525600 MEMORY=20000000 $END                                     
 INPUT CARD> $TDDFT NSTATE=20 MULT=1 IROOT=1 TAMMD=.FALSE. $END                             
 INPUT CARD> $BASIS GBASIS=N311 NGAUSS=6 NDFUNC=2 NPFUNC=1 DIFFSP=.TRUE. $END               
 INPUT CARD> $GUESS GUESS=MOREAD NORB=12 $END                                               
 INPUT CARD> $SCF DIRSCF=.TRUE. $END                                                        
 INPUT CARD> $PCM SMD=.TRUE. SOLVNT=ACETNTRL $END                                           
 INPUT CARD> $DATA                                                                          
 INPUT CARD>Title                                                                           
 INPUT CARD>C1                                                                              
 INPUT CARD>C     6.0     1.18584    -0.02068     0.09501                                   
 INPUT CARD>C     6.0    -1.17988     0.07550     0.13020                                   
 INPUT CARD>O     8.0     0.02538     0.57351     0.12132                                   
 INPUT CARD>H     1.0     2.03481     0.64235     0.10830                                   
 INPUT CARD>H     1.0    -1.32015    -0.99801     0.11203                                   
 INPUT CARD>H     1.0     1.23793    -1.10205     0.07705                                   
 INPUT CARD>H     1.0    -1.97193     0.80572     0.14082                                   
 INPUT CARD> $END                                                                           
 INPUT CARD> $VEC                                                                           
 INPUT CARD> 1  1 3.40000006E-05-1.44000005E-04-2.35000000E-04 6.80000012E-05 3.99999999E-06
 INPUT CARD> 1  2 1.12399994E-03-6.51000009E-04 5.84000023E-04 2.20000002E-05-2.37499992E-03
 INPUT CARD> 1  3 9.38999990E-04-6.38999976E-04-2.70000000E-05 1.27899996E-03-9.96000017E-04
 INPUT CARD> 1  4 5.74000005E-04 1.99999995E-05 1.78999995E-04-3.70000016E-05-2.09999998E-04
 INPUT CARD> 1  5-1.88000005E-04-7.99999998E-06 7.00000010E-06 2.65000010E-04 6.47999987E-04
 INPUT CARD> 1  6 4.89999984E-05-4.82000003E-04-1.49999996E-05 1.80000006E-05 3.40000006E-05
 INPUT CARD> 1  7-1.44000005E-04 2.39000001E-04 4.89999984E-05-1.99999999E-06 1.12300005E-03
 INPUT CARD> 1  8 6.97000010E-04 5.29000012E-04-3.99999999E-06-2.37499992E-03-9.87999956E-04
 INPUT CARD> 1  9-5.60000015E-04 7.99999998E-06 1.27899996E-03 1.03900000E-03 4.91000013E-04
 INPUT CARD> 1 10-3.99999999E-06 2.03999996E-04-6.19999992E-05-2.09999998E-04 1.65000005E-04
 INPUT CARD> 1 11-3.00000011E-06-0.00000000E+00 3.34999990E-04 5.77000028E-04 4.89999984E-05
 INPUT CARD> 1 12 5.11999999E-04 9.99999997E-07 3.00000011E-06 5.52690983E-01 4.63409007E-01
 INPUT CARD> 1 13-5.29999998E-05-1.31099997E-03-2.20000002E-05 2.29620002E-02 3.40000006E-05
 INPUT CARD> 1 14 8.34000006E-04 1.40000002E-05 2.98289992E-02-2.90000007E-05-7.14999973E-04
 INPUT CARD> 1 15-1.20000004E-05-7.78800016E-03-1.60000000E-05-3.84000014E-04-6.00000021E-06
 INPUT CARD> 1 16-6.53999997E-03-6.98299985E-03-6.99400017E-03-2.09999998E-05-7.99999998E-06
 INPUT CARD> 1 17 0.00000000E+00-1.33769996E-02-1.19209997E-02-1.19709997E-02 6.80000012E-05
 INPUT CARD> 1 18 2.30000005E-05 0.00000000E+00 4.89999984E-05-4.89999984E-05 5.31000027E-04
 INPUT CARD> 1 19 2.64000002E-04-2.49999994E-05-1.99999999E-06 5.70000011E-05-4.51000000E-04
 INPUT CARD> 1 20 2.30999998E-04 2.20000002E-05-1.61000004E-04-3.99999999E-06 5.70000011E-05
 INPUT CARD> 1 21-4.52000007E-04 2.30999998E-04-3.50000009E-05-1.59000003E-04-1.99999999E-06
 INPUT CARD> 1 22 4.89999984E-05-4.80000017E-05 5.31000027E-04-2.65000010E-04-3.00000011E-06
 INPUT CARD> 1 23 1.99999999E-06                                                            
 INPUT CARD> 2  1-5.78659996E-02-4.65079993E-02 6.39999998E-05-1.19999997E-04-4.99999987E-06
 INPUT CARD> 2  2-3.94500000E-03 5.67000010E-04 3.68000008E-04 9.99999997E-07-2.17400002E-03
 INPUT CARD> 2  3-6.21000014E-04-1.42200000E-03-1.60000000E-05 4.96499985E-03-2.27400009E-03
 INPUT CARD> 2  4-6.29000016E-04 2.70000000E-05 9.80000012E-04 1.23900000E-03 1.17299997E-03
 INPUT CARD> 2  5-9.10000017E-05 1.99999999E-06 3.00000011E-06 1.85000000E-03 1.41999999E-03
 INPUT CARD> 2  6 1.19200000E-03 4.48000006E-04-3.00000011E-06-9.99999997E-07 5.62183022E-01
   20000000 WORDS OF MEMORY AVAILABLE

     BASIS OPTIONS
     -------------
     GBASIS=N311         IGAUSS=       6      POLAR=POPN311 
     NDFUNC=       2     NFFUNC=       0     DIFFSP=       T
     NPFUNC=       1      DIFFS=       F     BASNAM=        
     SPLIT2=     2.00000000     0.50000000


     RUN TITLE
     ---------
 Title                                                                           

 THE POINT GROUP OF THE MOLECULE IS C1      
 THE ORDER OF THE PRINCIPAL AXIS IS     0

 ATOM      ATOMIC                      COORDINATES (BOHR)
           CHARGE         X                   Y                   Z
 C           6.0     2.2409126653       -0.0390795334        0.1795428661
 C           6.0    -2.2296498984        0.1426743121        0.2460423236
 O           8.0     0.0479612456        1.0837767512        0.2292615568
 H           1.0     3.8452333371        1.2138654882        0.2046573245
 H           1.0    -2.4947217627       -1.8859654330        0.2117060024
 H           1.0     2.3393484920       -2.0825725248        0.1456033874
 H           1.0    -3.7264073670        1.5225900228        0.2661112136

          INTERNUCLEAR DISTANCES (ANGS.)
          ------------------------------

                1 C          2 C          3 O          4 H          5 H     

   1 C       0.0000000    2.3679358 *  1.3040021 *  1.0772815 *  2.6898791 *
   2 C       2.3679358 *  0.0000000    1.3041259 *  3.2643576    1.0827879 *
   3 O       1.3040021 *  1.3041259 *  0.0000000    2.0106510 *  2.0688674 *
   4 H       1.0772815 *  3.2643576    2.0106510 *  0.0000000    3.7345082  
   5 H       2.6898791 *  1.0827879 *  2.0688674 *  3.7345082    0.0000000  
   6 H       1.0827728 *  2.6898428 *  2.0687529 *  1.9180526 *  2.5604338 *
   7 H       3.2644367    1.0773473 *  2.0108578 *  4.0102011    1.9180949 *

                6 H          7 H     

   1 C       1.0827728 *  3.2644367  
   2 C       2.6898428 *  1.0773473 *
   3 O       2.0687529 *  2.0108578 *
   4 H       1.9180526 *  4.0102011  
   5 H       2.5604338 *  1.9180949 *
   6 H       0.0000000    3.7345487  
   7 H       3.7345487    0.0000000  

  * ... LESS THAN  3.000


     ATOMIC BASIS SET
     ----------------
 THE CONTRACTED PRIMITIVE FUNCTIONS HAVE BEEN UNNORMALIZED
 THE CONTRACTED BASIS FUNCTIONS ARE NOW NORMALIZED TO UNITY

  SHELL TYPE  PRIMITIVE        EXPONENT          CONTRACTION COEFFICIENT(S)

 C         

      1   S       1          4563.2400000    0.001966650249
      1   S       2           682.0240000    0.015230601932
      1   S       3           154.9730000    0.076126909656
      1   S       4            44.4553000    0.260801033080
      1   S       5            13.0290000    0.616462078191
      1   S       6             1.8277300    0.221006028032

      2   L       7            20.9642000    0.114660080729    0.040248692673
      2   L       8             4.8033100    0.919999647749    0.237593956746
      2   L       9             1.4593300   -0.003030682134    0.815853851473

      3   L      10             0.4834560    1.000000000000    1.000000000000

      4   L      11             0.1455850    1.000000000000    1.000000000000

      5   L      12             0.0438000    1.000000000000    1.000000000000

      6   D      13             1.2520000    1.000000000000

      7   D      14             0.3130000    1.000000000000

 C         

      8   S      15          4563.2400000    0.001966650249
      8   S      16           682.0240000    0.015230601932
      8   S      17           154.9730000    0.076126909656
      8   S      18            44.4553000    0.260801033080
      8   S      19            13.0290000    0.616462078191
      8   S      20             1.8277300    0.221006028032

      9   L      21            20.9642000    0.114660080729    0.040248692673
      9   L      22             4.8033100    0.919999647749    0.237593956746
      9   L      23             1.4593300   -0.003030682134    0.815853851473

     10   L      24             0.4834560    1.000000000000    1.000000000000

     11   L      25             0.1455850    1.000000000000    1.000000000000

     12   L      26             0.0438000    1.000000000000    1.000000000000

     13   D      27             1.2520000    1.000000000000

     14   D      28             0.3130000    1.000000000000

 O         

     15   S      29          8588.5000000    0.001895150083
     15   S      30          1297.2300000    0.014385900631
     15   S      31           299.2960000    0.070732003103
     15   S      32            87.3771000    0.240001010530
     15   S      33            25.6789000    0.594797026097
     15   S      34             3.7400400    0.280802012320

     16   L      35            42.1175000    0.113889012440    0.036511397380
     16   L      36             9.6283700    0.920811100576    0.237152982984
     16   L      37             2.8533200   -0.003274470358    0.819701941186

     17   L      38             0.9056610    1.000000000000    1.000000000000

     18   L      39             0.2556110    1.000000000000    1.000000000000

     19   L      40             0.0845000    1.000000000000    1.000000000000

     20   D      41             2.5840000    1.000000000000

     21   D      42             0.6460000    1.000000000000

 H         

     22   S      43            33.8650000    0.025493814541
     22   S      44             5.0947900    0.190373108582
     22   S      45             1.1587900    0.852161486043

     23   S      46             0.3258400    1.000000000000

     24   S      47             0.1027410    1.000000000000

     25   P      48             0.7500000    1.000000000000

 H         

     26   S      49            33.8650000    0.025493814541
     26   S      50             5.0947900    0.190373108582
     26   S      51             1.1587900    0.852161486043

     27   S      52             0.3258400    1.000000000000

     28   S      53             0.1027410    1.000000000000

     29   P      54             0.7500000    1.000000000000

 H         

     30   S      55            33.8650000    0.025493814541
     30   S      56             5.0947900    0.190373108582
     30   S      57             1.1587900    0.852161486043

     31   S      58             0.3258400    1.000000000000

     32   S      59             0.1027410    1.000000000000

     33   P      60             0.7500000    1.000000000000

 H         

     34   S      61            33.8650000    0.025493814541
     34   S      62             5.0947900    0.190373108582
     34   S      63             1.1587900    0.852161486043

     35   S      64             0.3258400    1.000000000000

     36   S      65             0.1027410    1.000000000000

     37   P      66             0.7500000    1.000000000000

 TOTAL NUMBER OF BASIS SET SHELLS             =   37
 NUMBER OF CARTESIAN GAUSSIAN BASIS FUNCTIONS =  111
 NUMBER OF ELECTRONS                          =   24
 CHARGE OF MOLECULE                           =    0
 SPIN MULTIPLICITY                            =    1
 NUMBER OF OCCUPIED ORBITALS (ALPHA)          =   12
 NUMBER OF OCCUPIED ORBITALS (BETA )          =   12
 TOTAL NUMBER OF ATOMS                        =    7
 THE NUCLEAR REPULSION ENERGY IS       72.5433473888

 SELECTED MURRAY-HANDY-LAMING RADIAL GRID

 LEGACY BECKE'S FUZZY CELL METHOD

 SELECTED ORIGINAL BECKE'S PARTITION FUNCTION

     LEBEDEV GRID-BASED DFT OPTIONS
     ------------------------------
     DFTTYP=B3LYP   
     NRAD  =      96     NLEB  =     302
     NRAD0 =      24     NLEB0 =     110
     SWOFF =    5.00E-03 (PURE SCF -> DFT)
     SWITCH=    3.00E-04 (COARSE -> TIGHT GRID)
     THRESH=    0.00E+00 GTHRE=    1.00E+00

 GRIMME'S EMPIRICAL DISPERSION CORRECTION= F

     $CONTRL OPTIONS
     ---------------
 SCFTYP=RHF          RUNTYP=ENERGY       EXETYP=RUN     
 MPLEVL=       0     CITYP =NONE         CCTYP =NONE         VBTYP =NONE    
 DFTTYP=B3LYP        TDDFT =EXCITE  
 MULT  =       1     ICHARG=       0     NZVAR =       0     COORD =UNIQUE  
 PP    =NONE         RELWFN=NONE         LOCAL =NONE         NUMGRD=       F
 ISPHER=      -1     NOSYM =       0     MAXIT =      30     UNITS =ANGS    
 PLTORB=       F     MOLPLT=       F     AIMPAC=       F     FRIEND=        
 NPRINT=       7     IREST =       0     GEOM  =INPUT   
 NORMF =       0     NORMP =       0     ITOL  =      20     ICUT  =       9
 INTTYP=BEST         GRDTYP=BEST         QMTTOL= 1.0E-06

     $SYSTEM OPTIONS
     ---------------
  REPLICATED MEMORY=    20000000 WORDS (ON EVERY NODE).
 DISTRIBUTED MEMDDI=           0 MILLION WORDS IN AGGREGATE,
 MEMDDI DISTRIBUTED OVER   6 PROCESSORS IS           0 WORDS/PROCESSOR.
 TOTAL MEMORY REQUESTED ON EACH PROCESSOR=    20000000 WORDS.
 TIMLIM=      525600.00 MINUTES, OR     365.0 DAYS.
 PARALL= T  BALTYP=  DLB     KDIAG=    0  COREFL= F
 MXSEQ2=     300 MXSEQ3=     150  mem10=         0  mem22=         0

     -----------------------------------
     INPUT FOR PCM SOLVATION CALCULATION 
     -----------------------------------
     IEF   =     -10
     ICOMP =       0     IFIELD=       0     ICAV  =       0
     IDISP =       0     IREP  =       0     IDP   =       0

     SOLVNT=ACETNTRL     EPS   = 35.6880     EPSINF=  1.8069
     VMOL  =  0.0000     TCE   =  0.00000000 STEN  =  0.0000
     DSTEN =  0.0000     CMF   =  0.0000     RSOLV =  0.0000

     NESFP =       0
     OMEGA = 40.0000     RET   =100.0000     FRO   =  0.7000

     TABS  =298.0000     IPRINT=       0

     --------------------------------
     INPUT FOR ITERATIVE C-PCM METHOD 
     --------------------------------
     IPCMIT  =         1     MXDIIS  =        50
     MXITR1  =        50     MXITR2  =        50
     THRES   = 0.100E-09     IMUL    =         3
     RCUT(1) =   15.0000     RCUT(2) =   30.0000

     IDIRCT  =         1
     IMGABI  =         0     RABI    =    4.0000
     IMGASC  =         0     RASC    =   20.0000
     THRSLS  = 0.500E-03     DENSLS  =    0.0100
     IEFPOL  =         1     REFPOL  =    0.0000

     ------------------------------------
     INPUT FOR NONAQUEOUS SMD CALCULATION 
     ------------------------------------
     SOLVNT= acetonitrile                    EPS   = 35.6880
     SOLA  =  0.0700     SOLB  =  0.3200     SOLC  =  0.0000
     SOLG  = 41.2500     SOLH  =  0.0000     SOLN  =  1.3442

     INPUT FOR ISOTROPIC DIELECTRICS
     -------------------------------
     EPS=    35.69

     INPUT FOR CAVITY DEFINITION 
     ---------------------------
   ATOM               COORDINATES                RADIUS       EPS
      1      1.1858     -0.0207      0.0950      1.8500     35.6880
      2     -1.1799      0.0755      0.1302      1.8500     35.6880
      3      0.0254      0.5735      0.1213      2.1680     35.6880
      4      2.0348      0.6424      0.1083      1.2000     35.6880
      5     -1.3201     -0.9980      0.1120      1.2000     35.6880
      6      1.2379     -1.1020      0.0771      1.2000     35.6880
      7     -1.9719      0.8057      0.1408      1.2000     35.6880

     ----------------------------
     INPUT FOR TESSERA DEFINITION
     ----------------------------
     NTSALL  =        60     MTHALL  =         4
     MTHAUT  =         0     AUTFRE  =    2.0000
     NTSFRZ  =        60     KEEPSM  =         0
     AREAKP  =   10.0000     BONDRY  =    1.0000
     AREATL  =    0.0100

     SPHERE     INITS       METHOD
          1        60       FIXPVA
          2        60       FIXPVA
          3        60       FIXPVA
          4        60       FIXPVA
          5        60       FIXPVA
          6        60       FIXPVA
          7        60       FIXPVA

     ------------------------------
      FIXPVA TESSELLATION FOR PCM
         PEIFENG SU AND HUI LI
     UNIVERSITY OF NEBRASKA-LINCOLN
     ------------------------------


 PCM DIMENSIONS: MXSP=  2000, MXTS=       420, MEMORY=         31243

 Using Gaussians for PCM contribution to MEP, params: 0.10000E+01 0.10000E-07

          ----------------
          PROPERTIES INPUT
          ----------------

     MOMENTS            FIELD           POTENTIAL          DENSITY
 IEMOM =       1   IEFLD =       0   IEPOT =       0   IEDEN =       0
 WHERE =COMASS     WHERE =NUCLEI     WHERE =NUCLEI     WHERE =NUCLEI  
 OUTPUT=BOTH       OUTPUT=BOTH       OUTPUT=BOTH       OUTPUT=BOTH    
 IEMINT=       0   IEFINT=       0                     IEDINT=       0
                                                       MORB  =       0
          EXTRAPOLATION IN EFFECT
          DIIS IN EFFECT
 ORBITAL PRINTING OPTION: NPREO=     1   111     2     1

     -------------------------------
     INTEGRAL TRANSFORMATION OPTIONS
     -------------------------------
     NWORD  =            0
     CUTOFF = 1.0E-09     MPTRAN =       0
     DIRTRF =       T     AOINTS =DUP     

          ----------------------
          INTEGRAL INPUT OPTIONS
          ----------------------
 NOPK  =       1 NORDER=       0 SCHWRZ=       T

          ----------------------
          TDDFT INPUT PARAMETERS
          ----------------------
 NSTATE=      20 IROOT =       1 MULT  =       1
 MAXVEC=      50 NTRIAL=       5 CNVTOL=  1.00E-07
 TDPRP =       F TRNSD =       F TAMMD =       F
 TPA   =       F ALPHA =       F BETA  =       F
 PFREQ =    0.00    0.00
   NRAD=      48   NLEB=     110

     ------------------------------------------
     THE POINT GROUP IS C1 , NAXIS= 1, ORDER= 1
     ------------------------------------------

     DIMENSIONS OF THE SYMMETRY SUBSPACES ARE
 A   =  111

 ..... DONE SETTING UP THE RUN .....
 CPU     0: STEP CPU TIME=     0.03 TOTAL CPU TIME=          0.0 (      0.0 MIN)
 TOTAL WALL CLOCK TIME=          0.0 SECONDS, CPU UTILIZATION IS   100.00%

          ********************
          1 ELECTRON INTEGRALS
          ********************
 ...... END OF ONE-ELECTRON INTEGRALS ......
 CPU     0: STEP CPU TIME=     0.00 TOTAL CPU TIME=          0.0 (      0.0 MIN)
 TOTAL WALL CLOCK TIME=          0.0 SECONDS, CPU UTILIZATION IS   100.00%

          -------------
          GUESS OPTIONS
          -------------
          GUESS =MOREAD            NORB  =      12          NORDER=       0
          MIX   =       F          PRTMO =       F          PUNMO =       F
          TOLZ  = 1.0E-08          TOLE  = 1.0E-05
          SYMDEN=       F          PURIFY=       F

 INITIAL GUESS ORBITALS GENERATED BY MOREAD   ROUTINE.

 SYMMETRIES FOR INITIAL GUESS ORBITALS FOLLOW.   BOTH SET(S).
    12 ORBITALS ARE OCCUPIED (    3 CORE ORBITALS).
     1=A        2=A        3=A        4=A        5=A        6=A        7=A   
     8=A        9=A       10=A       11=A       12=A       13=A       14=A   
    15=A       16=A       17=A       18=A       19=A       20=A       21=A   
    22=A       23=A       24=A       25=A       26=A       27=A       28=A   
    29=A       30=A       31=A       32=A       33=A       34=A       35=A   
    36=A       37=A       38=A       39=A       40=A       41=A       42=A   
    43=A       44=A       45=A       46=A       47=A       48=A       49=A   
    50=A       51=A       52=A       53=A       54=A       55=A       56=A   
    57=A       58=A       59=A       60=A       61=A       62=A       63=A   
    64=A       65=A       66=A       67=A       68=A       69=A       70=A   
    71=A       72=A       73=A       74=A       75=A       76=A       77=A   
    78=A       79=A       80=A       81=A       82=A       83=A       84=A   
    85=A       86=A       87=A       88=A       89=A       90=A       91=A   
    92=A       93=A       94=A       95=A       96=A       97=A       98=A   
    99=A      100=A      101=A      102=A      103=A      104=A      105=A   
   106=A      107=A      108=A      109=A      110=A      111=A   
 ...... END OF INITIAL ORBITAL SELECTION ......
 CPU     0: STEP CPU TIME=     0.00 TOTAL CPU TIME=          0.0 (      0.0 MIN)
 TOTAL WALL CLOCK TIME=          0.0 SECONDS, CPU UTILIZATION IS    75.00%

                    ----------------------
                    AO INTEGRAL TECHNOLOGY
                    ----------------------
     S,P,L SHELL ROTATED AXIS INTEGRALS, REPROGRAMMED BY
        KAZUYA ISHIMURA (IMS) AND JOSE SIERRA (SYNSTAR).
     S,P,D,L SHELL ROTATED AXIS INTEGRALS PROGRAMMED BY
        KAZUYA ISHIMURA (INSTITUTE FOR MOLECULAR SCIENCE).
     S,P,D,F,G SHELL TO TOTAL QUARTET ANGULAR MOMENTUM SUM 5,
        ERIC PROGRAM BY GRAHAM FLETCHER (ELORET AND NASA ADVANCED
        SUPERCOMPUTING DIVISION, AMES RESEARCH CENTER).
     S,P,D,F,G,L SHELL GENERAL RYS QUADRATURE PROGRAMMED BY
        MICHEL DUPUIS (PACIFIC NORTHWEST NATIONAL LABORATORY).

          --------------------
          2 ELECTRON INTEGRALS
          --------------------

 DIRECT SCF METHOD SKIPS INTEGRAL STORAGE ON DISK.
 DIRECT TRANSFORMATION SKIPS AO INTEGRAL STORAGE ON DISK.
  ...... END OF TWO-ELECTRON INTEGRALS .....
 CPU     0: STEP CPU TIME=     0.02 TOTAL CPU TIME=          0.0 (      0.0 MIN)
 TOTAL WALL CLOCK TIME=          0.1 SECONDS, CPU UTILIZATION IS    83.33%

          -------------------------------------
          ---- POLARISABLE CONTINUUM MODEL ----
          ----      UNIVERSITY OF PISA     ----
          -------------------------------------

     ----------------------------
     INPUT FOR TESSERA DEFINITION
     ----------------------------
     NTSALL  =        60     MTHALL  =         4
     MTHAUT  =         0     AUTFRE  =    2.0000
     NTSFRZ  =        60     KEEPSM  =         0
     AREAKP  =   10.0000     BONDRY  =    1.0000
     AREATL  =    0.0100

     SPHERE     INITS       METHOD
          1        60       FIXPVA
          2        60       FIXPVA
          3        60       FIXPVA
          4        60       FIXPVA
          5        60       FIXPVA
          6        60       FIXPVA
          7        60       FIXPVA

     ------------------------------
      FIXPVA TESSELLATION FOR PCM
         PEIFENG SU AND HUI LI
     UNIVERSITY OF NEBRASKA-LINCOLN
     ------------------------------


     INPUT FOR CAVITY DEFINITION 
     ---------------------------
   ATOM               COORDINATES                RADIUS       EPS
      1      1.1858     -0.0207      0.0950      1.8500     35.6880
      2     -1.1799      0.0755      0.1302      1.8500     35.6880
      3      0.0254      0.5735      0.1213      2.1680     35.6880
      4      2.0348      0.6424      0.1083      1.2000     35.6880
      5     -1.3201     -0.9980      0.1120      1.2000     35.6880
      6      1.2379     -1.1020      0.0771      1.2000     35.6880
      7     -1.9719      0.8057      0.1408      1.2000     35.6880

 MEMORY USED TO GENERATE CAVITY=    211102


 TOTAL NUMBER OF SPHERES=     7
 SPHERE           CENTER  (X,Y,Z) (A)               RADIUS (A)      AREA(A*A)
     1   1.185840000  -0.020680000   0.095010000   1.850000000  10.753228935
     2  -1.179880000   0.075500000   0.130200000   1.850000000   9.960724776
     3   0.025380000   0.573510000   0.121320000   2.167999999  27.407647974
     4   2.034810000   0.642350000   0.108300000   1.200000000   4.640202082
     5  -1.320150000  -0.998010000   0.112030000   1.200000000   3.707752892
     6   1.237930000  -1.102050000   0.077050000   1.200000000   3.656909615
     7  -1.971930000   0.805720000   0.140820000   1.200000000   4.600813820

 TOTAL NUMBER OF TESSERAE=     149
 SURFACE AREA=    64.72728009(A**2)    CAVITY VOLUME=     52.00359350 (A**3)
 CPU     0: STEP CPU TIME=     0.00 TOTAL CPU TIME=          0.0 (      0.0 MIN)
 TOTAL WALL CLOCK TIME=          0.1 SECONDS, CPU UTILIZATION IS    83.33%

          THE SOLUTE IS ENCLOSED IN ONE CAVITY
 DONE CHECKING SEPARATION.
 CPU     0: STEP CPU TIME=     0.00 TOTAL CPU TIME=          0.0 (      0.0 MIN)
 TOTAL WALL CLOCK TIME=          0.1 SECONDS, CPU UTILIZATION IS    83.33%

 ..... DONE GENERATING CAVITY .....
 CPU     0: STEP CPU TIME=     0.00 TOTAL CPU TIME=          0.0 (      0.0 MIN)
 TOTAL WALL CLOCK TIME=          0.1 SECONDS, CPU UTILIZATION IS    83.33%
 NUCLEI-NUCLEAR CHARGE POLARIZATION ADJUSTMENT TO VNN=        0.0000000000

          --------------------------
             R-B3LYP SCF CALCULATION
          --------------------------

     NUCLEAR ENERGY =        72.5433473888
     MAXIT =   30     NPUNCH=    2
     EXTRAP=T  DAMP=F  SHIFT=F  RSTRCT=F  DIIS=T  DEM=F  SOSCF=F
         DENSITY MATRIX CONVERGENCE THRESHOLD=  2.00E-06
     COARSE -> FINE DFT GRID SWITCH THRESHOLD=  3.00E-04 (SWITCH IN $DFT)
                   HF -> DFT SWITCH THRESHOLD=  0.00E+00 (SWOFF IN $DFT)
     MEMORY REQUIRED FOR RHF ITERS=    465593 WORDS.

 DIRECT SCF CALCULATION, SCHWRZ=T   FDIFF=F,  DIRTHR=  0.00E+00 NITDIR=10
 SCHWARZ INEQUALITY OVERHEAD:      6216 INTEGRALS, T=        0.00

     EXCHANGE FUNCTIONAL   =B88&HFX   
     CORRELATION FUNCTIONAL=LYP88&VWN5
     DFT THRESHOLD         =.493E-08
     GRID CHANGE THRESHOLD =.300E-03
 FOR AN EULER-MACLAURIN QUADRATURE USING  96 RADIAL POINTS:
 SMALLEST GAUSSIAN PRIMITIVE EXPONENT=        0.0438000000 OF TYPE -P-
 ON ATOM NUMBER   1 HAS RADIAL NORMALIZATION=  1.000000
  LARGEST GAUSSIAN PRIMITIVE EXPONENT=     8588.5000000000 OF TYPE -S-
 ON ATOM NUMBER   3 HAS RADIAL NORMALIZATION=  1.000000

                                                                                   NONZERO     BLOCKS
 ITER EX DEM     TOTAL ENERGY        E CHANGE  DENSITY CHANGE    DIIS ERROR      INTEGRALS    SKIPPED
          * * *   INITIATING DIIS PROCEDURE   * * *
   1  0  0     -153.6820982608  -153.6820982608   0.000010489   0.000025608       18071438      16508
   2  1  0     -153.6820982612    -0.0000000004   0.000018769   0.000010218       18071438      16508
   3  2  0     -153.6820982598     0.0000000014   0.000014921   0.000021220       18071438      16508
   4  3  0     -153.6820982617    -0.0000000019   0.000002155   0.000003576       18071438      16508
   5  4  0     -153.6820982618    -0.0000000001   0.000000212   0.000000220       18071438      16508

          -----------------
          DENSITY CONVERGED
          -----------------
     TIME TO FORM FOCK OPERATORS=       4.1 SECONDS (       0.8 SEC/ITER)
     FOCK TIME ON FIRST ITERATION=       0.8, LAST ITERATION=       0.9
     TIME TO SOLVE SCF EQUATIONS=       0.1 SECONDS (       0.0 SEC/ITER)

 FINAL R-B3LYP ENERGY IS     -153.6820982618 AFTER   5 ITERATIONS
 DFT EXCHANGE + CORRELATION ENERGY =       -16.7921638962
 TOTAL ELECTRON NUMBER             =        23.9999971119
  
   PCM ASC=     -0.0287288957
   GCAVP  =      0.0000000000
   GDISP  =      0.0000000000
   GREP   =      0.0000000000

          ------------
          EIGENVECTORS
          ------------

                      1          2          3          4          5
                  -19.2417   -10.2082   -10.2082    -1.1390    -0.7671
                     A          A          A          A          A   
    1  C  1  S    0.000034  -0.053571   0.562611  -0.037480   0.071846
    2  C  1  S   -0.000144  -0.043062   0.451282  -0.053570   0.106585
    3  C  1  X   -0.000235   0.000056  -0.001025  -0.049634   0.041215
    4  C  1  Y    0.000068  -0.000116   0.000485   0.022561  -0.036083
    5  C  1  Z    0.000004  -0.000004   0.000033   0.001111  -0.001434
    6  C  1  S    0.001124  -0.003717   0.029897   0.122256  -0.285514
    7  C  1  X   -0.000651   0.000561  -0.000730  -0.064284   0.059938
    8  C  1  Y    0.000584   0.000370   0.000291   0.027225  -0.052152
    9  C  1  Z    0.000022   0.000001   0.000029   0.001395  -0.002037
   10  C  1  S   -0.002375  -0.001683   0.064350   0.063825  -0.135548
   11  C  1  X    0.000939  -0.000653  -0.004211  -0.013857   0.014253
   12  C  1  Y   -0.000639  -0.001402   0.002591   0.008319  -0.003087
   13  C  1  Z   -0.000027  -0.000015   0.000120   0.000283  -0.000139
   14  C  1  S    0.001279   0.004946  -0.002537   0.005668  -0.031672
   15  C  1  X   -0.000996  -0.002266   0.001110  -0.001088   0.008403
   16  C  1  Y    0.000574  -0.000625   0.000629   0.000004   0.000008
   17  C  1  Z    0.000020   0.000027   0.000012   0.000059  -0.000156
   18  C  1 XX    0.000179   0.000894  -0.011243   0.013502  -0.012099
   19  C  1 YY   -0.000037   0.001152  -0.011405   0.000642  -0.006909
   20  C  1 ZZ   -0.000210   0.001076  -0.012647  -0.003944   0.003816
   21  C  1 XY   -0.000188  -0.000092  -0.000142  -0.008295   0.008331
   22  C  1 XZ   -0.000008   0.000001  -0.000017  -0.000424   0.000357
   23  C  1 YZ    0.000007   0.000003   0.000031   0.000217  -0.000381
   24  C  1 XX    0.000265   0.001710  -0.018289   0.007816  -0.005121
   25  C  1 YY    0.000648   0.001283  -0.018028  -0.013620  -0.006248
   26  C  1 ZZ    0.000049   0.001039  -0.020031  -0.006855   0.000339
   27  C  1 XY   -0.000482   0.000443  -0.000682  -0.005325   0.015178
   28  C  1 XZ   -0.000015  -0.000003  -0.000030  -0.000338   0.000418
   29  C  1 YZ    0.000018  -0.000001   0.000062  -0.000086  -0.000278
   30  C  2  S    0.000034   0.562608   0.053604  -0.037464  -0.071847
   31  C  2  S   -0.000144   0.451297   0.042906  -0.053550  -0.106589
   32  C  2  X    0.000239   0.001054   0.000137   0.051290   0.044034
   33  C  2  Y    0.000049   0.000416  -0.000034   0.018447   0.032624
   34  C  2  Z   -0.000002  -0.000020  -0.000003  -0.000462  -0.000339
   35  C  2  S    0.001123   0.030057   0.001985   0.122169   0.285556
   36  C  2  X    0.000697   0.000836  -0.000378   0.066279   0.064021
   37  C  2  Y    0.000529   0.000146   0.000452   0.021909   0.047129
   38  C  2  Z   -0.000004  -0.000023   0.000008  -0.000616  -0.000464
   39  C  2  S   -0.002375   0.063511   0.010526   0.064000   0.135467
   40  C  2  X   -0.000988   0.004227   0.001363   0.014523   0.014471
   41  C  2  Y   -0.000560   0.002475  -0.000998   0.007207   0.001937
   42  C  2  Z    0.000008  -0.000036  -0.000040  -0.000063  -0.000106
   43  C  2  S    0.001279  -0.003418   0.004389   0.005771   0.031666
   44  C  2  X    0.001039  -0.001450   0.001973   0.001117   0.008371
   45  C  2  Y    0.000491   0.000858  -0.000656  -0.000072  -0.000688
   46  C  2  Z   -0.000004   0.000020  -0.000048  -0.000059  -0.000161
   47  C  2 XX    0.000204  -0.011194  -0.001227   0.014579   0.013238
   48  C  2 YY   -0.000062  -0.011433  -0.001040  -0.000437   0.005775
   49  C  2 ZZ   -0.000210  -0.012623  -0.001331  -0.003951  -0.003828
   50  C  2 XY    0.000165   0.000102   0.000137   0.006982   0.007741
   51  C  2 XZ   -0.000003  -0.000015   0.000002  -0.000190  -0.000120
   52  C  2 YZ   -0.000000   0.000018   0.000002  -0.000042   0.000023
   53  C  2 XX    0.000335  -0.018176  -0.001822   0.008403   0.007287
   54  C  2 YY    0.000577  -0.018054  -0.002106  -0.014263   0.004094
   55  C  2 ZZ    0.000049  -0.019869  -0.002767  -0.006883  -0.000339
   56  C  2 XY    0.000512   0.000775  -0.000336   0.003261   0.015091
   57  C  2 XZ    0.000001  -0.000007  -0.000020  -0.000233   0.000032
   58  C  2 YZ    0.000003   0.000013   0.000015  -0.000150  -0.000037
   59  O  3  S    0.552691  -0.000041  -0.000049  -0.115096  -0.000010
   60  O  3  S    0.463409  -0.000158  -0.000191  -0.177613  -0.000016
   61  O  3  X   -0.000053  -0.000254   0.000200  -0.001643  -0.190355
   62  O  3  Y   -0.001311  -0.000102  -0.000145  -0.040655   0.007745
   63  O  3  Z   -0.000022   0.000002  -0.000005  -0.000661   0.002683
   64  O  3  S    0.022962   0.001255   0.001519   0.547358   0.000054
   65  O  3  X    0.000034   0.000733  -0.000577  -0.002822  -0.282719
   66  O  3  Y    0.000834   0.000314   0.000440  -0.069682   0.011500
   67  O  3  Z    0.000014  -0.000006   0.000016  -0.001134   0.003993
   68  O  3  S    0.029829  -0.004667  -0.005654   0.250741   0.000039
   69  O  3  X   -0.000029   0.004126  -0.003309  -0.000678  -0.137297
   70  O  3  Y   -0.000715   0.001047   0.001607  -0.017091   0.005588
   71  O  3  Z   -0.000012  -0.000039   0.000072  -0.000280   0.001856
   72  O  3  S   -0.007788  -0.013411  -0.016247  -0.024246   0.000031
   73  O  3  X   -0.000016   0.003847  -0.002912   0.000334   0.005461
   74  O  3  Y   -0.000384   0.002925   0.003851   0.006571  -0.000239
   75  O  3  Z   -0.000006  -0.000007   0.000107   0.000108  -0.000092
   76  O  3 XX   -0.006540   0.000079   0.000075   0.012134   0.000592
   77  O  3 YY   -0.006983  -0.000106  -0.000108   0.005141  -0.000589
   78  O  3 ZZ   -0.006994  -0.000200  -0.000242   0.002571  -0.000002
   79  O  3 XY   -0.000021   0.000135  -0.000127  -0.000330   0.008354
   80  O  3 XZ   -0.000008  -0.000002  -0.000007  -0.000164   0.000130
   81  O  3 YZ    0.000000  -0.000000   0.000005   0.000054  -0.000123
   82  O  3 XX   -0.013377  -0.001720  -0.001880   0.039726   0.001083
   83  O  3 YY   -0.011921   0.000273   0.000128   0.023017  -0.001067
   84  O  3 ZZ   -0.011971   0.000920   0.001112   0.016926  -0.000002
   85  O  3 XY    0.000068  -0.001322   0.001264  -0.000785   0.015170
   86  O  3 XZ    0.000023   0.000019   0.000066  -0.000359   0.000238
   87  O  3 YZ    0.000000   0.000007  -0.000038   0.000132  -0.000239
   88  H  4  S    0.000049  -0.000057  -0.000132   0.009233  -0.047131
   89  H  4  S   -0.000049  -0.000513  -0.001023   0.011139  -0.061495
   90  H  4  S    0.000531   0.000536  -0.003700  -0.004926   0.000187
   91  H  4  X    0.000264   0.000088   0.001379  -0.003999   0.007518
   92  H  4  Y   -0.000025   0.000067   0.000752   0.000036   0.005936
   93  H  4  Z   -0.000002   0.000006   0.000011   0.000028   0.000129
   94  H  5  S    0.000057  -0.000173   0.000081   0.009778   0.034903
   95  H  5  S   -0.000451  -0.001402  -0.000699   0.018065   0.038727
   96  H  5  S    0.000231  -0.001631  -0.001293  -0.004099  -0.009887
   97  H  5  X    0.000022  -0.000177  -0.000272   0.000848   0.003689
   98  H  5  Y   -0.000161  -0.001611  -0.000231   0.003418   0.007507
   99  H  5  Z   -0.000004  -0.000030  -0.000001   0.000061   0.000075
  100  H  6  S    0.000057   0.000113  -0.000154   0.009783  -0.034909
  101  H  6  S   -0.000452  -0.000425  -0.001510   0.018051  -0.038715
  102  H  6  S    0.000231  -0.000959  -0.001845  -0.004097   0.009884
  103  H  6  X   -0.000035   0.000239   0.000092  -0.000562   0.003052
  104  H  6  Y   -0.000159   0.000057  -0.001639   0.003475  -0.007780
  105  H  6  Z   -0.000002  -0.000002  -0.000025   0.000059  -0.000176
  106  H  7  S    0.000049  -0.000119  -0.000080   0.009229   0.047123
  107  H  7  S   -0.000048  -0.000907  -0.000697   0.011142   0.061503
  108  H  7  S    0.000531  -0.003735  -0.000173  -0.004934  -0.000188
  109  H  7  X   -0.000265  -0.001273  -0.000328   0.003989   0.007005
  110  H  7  Y   -0.000003   0.000833   0.000236  -0.000292  -0.006539
  111  H  7  Z    0.000002   0.000017   0.000000  -0.000041  -0.000087

                      6          7          8          9         10
                   -0.5967    -0.5245    -0.5165    -0.4667    -0.4150
                     A          A          A          A          A   
    1  C  1  S   -0.063364  -0.017019   0.034402   0.000404  -0.003162
    2  C  1  S   -0.095944  -0.026322   0.052960   0.000621  -0.004654
    3  C  1  X    0.041547   0.098375  -0.101607   0.001405  -0.102393
    4  C  1  Y   -0.057475   0.074429   0.086765   0.000327  -0.119425
    5  C  1  Z   -0.001106   0.000665   0.001875   0.088769  -0.000380
    6  C  1  S    0.276097   0.068836  -0.151004  -0.001404   0.016361
    7  C  1  X    0.045635   0.138508  -0.132096   0.002076  -0.134275
    8  C  1  Y   -0.069835   0.094154   0.117409   0.000185  -0.159128
    9  C  1  Z   -0.001199   0.000685   0.002430   0.131200  -0.000351
   10  C  1  S    0.155615   0.068751  -0.106910  -0.003180  -0.011873
   11  C  1  X    0.020944   0.063903  -0.066955   0.001392  -0.077159
   12  C  1  Y   -0.031197   0.044931   0.051866  -0.000504  -0.110922
   13  C  1  Z   -0.000690   0.000275   0.001093   0.080319  -0.000253
   14  C  1  S    0.007580   0.011096  -0.005716  -0.001034   0.013733
   15  C  1  X    0.000017   0.001648  -0.005139   0.000441  -0.014008
   16  C  1  Y   -0.003287   0.007689   0.003837  -0.000154  -0.015933
   17  C  1  Z   -0.000104   0.000148   0.000019   0.011525   0.000031
   18  C  1 XX    0.002626  -0.007439   0.006187  -0.000233  -0.002629
   19  C  1 YY    0.007841   0.006248  -0.007417  -0.000307   0.003988
   20  C  1 ZZ    0.000232   0.000981  -0.002048   0.000501  -0.000466
   21  C  1 XY    0.006777   0.004249  -0.011937   0.000340  -0.008643
   22  C  1 XZ    0.000143   0.000319  -0.000323  -0.013086  -0.000422
   23  C  1 YZ    0.000091   0.000156  -0.000004   0.006372   0.000152
   24  C  1 XX    0.018901  -0.018970  -0.006106  -0.000354  -0.000412
   25  C  1 YY    0.012100   0.015238  -0.005448  -0.000016  -0.000560
   26  C  1 ZZ    0.009983   0.004255  -0.011884   0.000769   0.001831
   27  C  1 XY    0.007824  -0.004061  -0.013091   0.000382  -0.002737
   28  C  1 XZ    0.000086   0.000269  -0.000337  -0.016261  -0.000320
   29  C  1 YZ   -0.000088   0.000252   0.000312   0.008110   0.000097
   30  C  2  S   -0.063353  -0.017075  -0.034425  -0.000415   0.003176
   31  C  2  S   -0.095930  -0.026408  -0.052996  -0.000636   0.004676
   32  C  2  X   -0.046049  -0.092088  -0.108243   0.001465  -0.092317
   33  C  2  Y   -0.053824   0.082044  -0.078320  -0.003385   0.127361
   34  C  2  Z   -0.000740   0.002093  -0.000813   0.088672   0.003889
   35  C  2  S    0.275928   0.069030   0.151254   0.001590  -0.016430
   36  C  2  X   -0.051142  -0.130534  -0.141066   0.002183  -0.120874
   37  C  2  Y   -0.065793   0.104934  -0.106418  -0.004677   0.169537
   38  C  2  Z   -0.001049   0.002830  -0.001208   0.131076   0.005326
   39  C  2  S    0.156123   0.069121   0.106607   0.002797   0.011579
   40  C  2  X   -0.023236  -0.060127  -0.070781   0.001274  -0.068141
   41  C  2  Y   -0.029258   0.049844  -0.046278  -0.002120   0.116629
   42  C  2  Z   -0.000429   0.001525  -0.000544   0.080234   0.003776
   43  C  2  S    0.007924   0.011229   0.005675   0.000969  -0.013767
   44  C  2  X   -0.000144  -0.000980  -0.005410   0.000428  -0.012723
   45  C  2  Y   -0.003261   0.007772  -0.003420  -0.000252   0.016993
   46  C  2  Z   -0.000014   0.000130  -0.000088   0.011511   0.000610
   47  C  2 XX    0.001704  -0.007957  -0.007766   0.000296   0.001367
   48  C  2 YY    0.008752   0.006773   0.009001  -0.000056  -0.002730
   49  C  2 ZZ    0.000232   0.000980   0.002051  -0.000183   0.000470
   50  C  2 XY   -0.006192  -0.002926  -0.010503  -0.000103  -0.009156
   51  C  2 XZ   -0.000063   0.000208  -0.000029   0.013563   0.000130
   52  C  2 YZ    0.000221   0.000044   0.000233   0.005296  -0.000013
   53  C  2 XX    0.017686  -0.018184   0.004393   0.000494  -0.000039
   54  C  2 YY    0.013126   0.014421   0.007309  -0.000369   0.000991
   55  C  2 ZZ    0.009894   0.004235   0.011953  -0.000311  -0.001825
   56  C  2 XY   -0.008345   0.007146  -0.013008  -0.000277  -0.002714
   57  C  2 XZ   -0.000259   0.000533  -0.000104   0.016871   0.000275
   58  C  2 YZ    0.000255   0.000110   0.000143   0.006785   0.000140
   59  O  3  S    0.042302  -0.006713   0.000022   0.000019  -0.000009
   60  O  3  S    0.066213  -0.009848   0.000035   0.000029  -0.000016
   61  O  3  X   -0.003112   0.007450   0.153830   0.004154   0.049225
   62  O  3  Y   -0.074981   0.179523  -0.006412  -0.004658  -0.002016
   63  O  3  Z   -0.001232   0.003093  -0.003900   0.260602   0.002755
   64  O  3  S   -0.212543   0.023403  -0.000091  -0.000081  -0.000007
   65  O  3  X   -0.004385   0.010969   0.231022   0.006187   0.074435
   66  O  3  Y   -0.105583   0.264145  -0.009626  -0.006941  -0.003046
   67  O  3  Z   -0.001738   0.004557  -0.005836   0.388544   0.004107
   68  O  3  S   -0.206669   0.080669  -0.000283  -0.000077   0.000403
   69  O  3  X   -0.003116   0.007790   0.135434   0.005291   0.059580
   70  O  3  Y   -0.075240   0.189191  -0.005613  -0.005663  -0.002501
   71  O  3  Z   -0.001188   0.003248  -0.004044   0.316977   0.003358
   72  O  3  S   -0.018077  -0.002982   0.000013  -0.000031   0.000293
   73  O  3  X    0.000075   0.000470  -0.007866   0.000688   0.013094
   74  O  3  Y   -0.003599   0.009365   0.000256  -0.000117  -0.000569
   75  O  3  Z   -0.000056   0.000130   0.000256   0.004986   0.000077
   76  O  3 XX   -0.003113   0.002327  -0.000345  -0.000002  -0.000400
   77  O  3 YY   -0.001183  -0.003415   0.000344   0.000127   0.000395
   78  O  3 ZZ   -0.003993   0.003301  -0.000002  -0.000131   0.000000
   79  O  3 XY    0.000092  -0.000274  -0.004856  -0.000027  -0.005602
   80  O  3 XZ   -0.000004   0.000028  -0.000074  -0.000178  -0.000094
   81  O  3 YZ    0.000055  -0.000131   0.000105  -0.004389   0.000035
   82  O  3 XX   -0.016758   0.021734  -0.000571  -0.000042  -0.001431
   83  O  3 YY    0.001643  -0.022827   0.000569   0.000693   0.001368
   84  O  3 ZZ   -0.009319   0.002461   0.000011  -0.000656  -0.000032
   85  O  3 XY    0.000869  -0.002104  -0.007830  -0.000223  -0.019783
   86  O  3 XZ    0.000204  -0.000255  -0.000120  -0.000943  -0.000335
   87  O  3 YZ    0.000190  -0.000482   0.000291  -0.023054   0.000014
   88  H  4  S    0.061382   0.100130  -0.059645   0.001196  -0.123990
   89  H  4  S    0.067881   0.137852  -0.074286   0.001803  -0.176187
   90  H  4  S    0.016884   0.020657  -0.011908   0.000540  -0.052636
   91  H  4  X   -0.006238  -0.011373   0.005588  -0.000097   0.013973
   92  H  4  Y   -0.008151  -0.009531   0.009089  -0.000184   0.008385
   93  H  4  Z   -0.000149  -0.000257   0.000167   0.005383   0.000294
   94  H  5  S    0.097823  -0.024872   0.100793   0.001719  -0.094477
   95  H  5  S    0.125036  -0.045604   0.136659   0.002633  -0.139234
   96  H  5  S    0.019384  -0.005572   0.026621   0.000576  -0.033074
   97  H  5  X    0.001433  -0.004471  -0.002854   0.000125  -0.006526
   98  H  5  Y    0.016664  -0.004004   0.016149   0.000172  -0.012614
   99  H  5  Z    0.000256  -0.000033   0.000278   0.005889  -0.000070
  100  H  6  S    0.097904  -0.025046  -0.100723  -0.001772   0.094461
  101  H  6  S    0.125122  -0.045837  -0.136577  -0.002581   0.139175
  102  H  6  S    0.019470  -0.005533  -0.026618  -0.000517   0.032974
  103  H  6  X   -0.000034   0.004114  -0.004200   0.000092  -0.005446
  104  H  6  Y    0.016742  -0.004385  -0.015859  -0.000370   0.013099
  105  H  6  Z    0.000293  -0.000100  -0.000246   0.005880   0.000336
  106  H  7  S    0.061373   0.100181   0.059555  -0.001249   0.123989
  107  H  7  S    0.067900   0.137874   0.074186  -0.002015   0.176198
  108  H  7  S    0.016960   0.020700   0.012019  -0.000570   0.052558
  109  H  7  X    0.005547   0.010539   0.004812  -0.000102   0.013218
  110  H  7  Y   -0.008644  -0.010454  -0.009521   0.000032  -0.009528
  111  H  7  Z   -0.000144  -0.000057  -0.000148   0.005383   0.000017

                     11         12         13         14         15
                   -0.3464    -0.1793    -0.0528     0.0186     0.0404
                     A          A          A          A          A   
    1  C  1  S    0.010419   0.000497   0.000229  -0.024536   0.023055
    2  C  1  S    0.015514   0.000792   0.000385  -0.039309   0.037575
    3  C  1  X    0.003574   0.002005   0.001067   0.031208  -0.033507
    4  C  1  Y   -0.109055  -0.004360  -0.003027  -0.011011   0.001270
    5  C  1  Z   -0.002880   0.195872   0.145051  -0.001138   0.000778
    6  C  1  S   -0.052727  -0.001944   0.000110   0.279610  -0.111595
    7  C  1  X    0.017002   0.002969   0.001651   0.066130  -0.075653
    8  C  1  Y   -0.145100  -0.006542  -0.004620  -0.022545  -0.003694
    9  C  1  Z   -0.004012   0.294627   0.211360  -0.001729   0.001009
   10  C  1  S   -0.010673  -0.005247  -0.009359  -0.615680  -0.132232
   11  C  1  X   -0.013411   0.002709   0.003811   0.447690  -0.166937
   12  C  1  Y   -0.106225  -0.008524  -0.009047  -0.142341   0.166541
   13  C  1  Z   -0.002566   0.342524   0.367809  -0.010115   0.007178
   14  C  1  S    0.005691  -0.002091  -0.010191  -1.451420  -0.332421
   15  C  1  X   -0.008185   0.001091   0.004375  -0.021194   1.225922
   16  C  1  Y   -0.011278  -0.002784  -0.006004  -0.097970   0.140243
   17  C  1  Z   -0.000209   0.111105   0.254947  -0.000722  -0.012174
   18  C  1 XX   -0.016367  -0.000081   0.000238   0.003618   0.000681
   19  C  1 YY    0.011197  -0.000025   0.000180   0.003135  -0.001359
   20  C  1 ZZ    0.000447   0.000072  -0.000381  -0.000304  -0.000602
   21  C  1 XY   -0.005278   0.000058  -0.000210  -0.002605  -0.003031
   22  C  1 XZ    0.000102  -0.002135   0.008599  -0.000079  -0.000113
   23  C  1 YZ    0.000187   0.001631  -0.005095   0.000106  -0.000026
   24  C  1 XX   -0.017075   0.000008   0.000792   0.029236   0.026102
   25  C  1 YY    0.015091   0.000094   0.001097   0.122628  -0.007074
   26  C  1 ZZ   -0.002753   0.000338  -0.000118   0.070961   0.001970
   27  C  1 XY   -0.001896  -0.000230  -0.000523   0.041989  -0.045302
   28  C  1 XZ    0.000232  -0.000932   0.016787   0.001668  -0.001413
   29  C  1 YZ    0.000373   0.003608  -0.016583   0.000762   0.000180
   30  C  2  S    0.010402   0.000527  -0.000232  -0.024463  -0.022937
   31  C  2  S    0.015489   0.000837  -0.000388  -0.039185  -0.037382
   32  C  2  X   -0.012489  -0.002300   0.001108  -0.031917  -0.033917
   33  C  2  Y   -0.108494   0.002428  -0.002106  -0.008431   0.002148
   34  C  2  Z   -0.000691  -0.195859   0.145224   0.000423   0.000780
   35  C  2  S   -0.052645  -0.002411  -0.000046   0.280717   0.110443
   36  C  2  X   -0.028821  -0.003414   0.001629  -0.067516  -0.075831
   37  C  2  Y   -0.143359   0.003657  -0.002856  -0.017103   0.011156
   38  C  2  Z   -0.000669  -0.294642   0.211660   0.000472   0.001265
   39  C  2  S   -0.010347  -0.004084   0.008728  -0.622996   0.132639
   40  C  2  X    0.004952  -0.002590   0.003250  -0.458390  -0.181702
   41  C  2  Y   -0.106871   0.002842  -0.003357  -0.106280  -0.152699
   42  C  2  Z   -0.001061  -0.342303   0.368048   0.005230   0.001894
   43  C  2  S    0.005897  -0.001484   0.008781  -1.456378   0.328544
   44  C  2  X    0.007346  -0.001002   0.003869   0.008291   1.203057
   45  C  2  Y   -0.011879   0.000954  -0.002412  -0.099885  -0.254242
   46  C  2  Z   -0.000225  -0.110952   0.254658  -0.001284  -0.018965
   47  C  2 XX   -0.015438  -0.000097  -0.000244   0.004006  -0.001010
   48  C  2 YY    0.010275   0.000059   0.000101   0.002782   0.001728
   49  C  2 ZZ    0.000449  -0.000007   0.000110  -0.000303   0.000544
   50  C  2 XY    0.007789   0.000016   0.000103   0.002544  -0.002751
   51  C  2 XZ    0.000350  -0.002268  -0.008985  -0.000006   0.000012
   52  C  2 YZ    0.000194  -0.001456  -0.004385   0.000039   0.000010
   53  C  2 XX   -0.016540  -0.000103  -0.000770   0.024623  -0.032559
   54  C  2 YY    0.014581   0.000142  -0.000177   0.128728   0.012723
   55  C  2 ZZ   -0.002755  -0.000052  -0.000738   0.071882  -0.002359
   56  C  2 XY    0.004898   0.000339  -0.000127  -0.032628  -0.041264
   57  C  2 XZ    0.000333  -0.001239  -0.018067   0.000626   0.000040
   58  C  2 YZ    0.000316  -0.003555  -0.015118   0.001182   0.000612
   59  O  3  S   -0.021784  -0.000307  -0.000030  -0.007971  -0.000184
   60  O  3  S   -0.033834  -0.000501  -0.000048  -0.011439  -0.000281
   61  O  3  X    0.008949   0.000061  -0.002091   0.001012   0.030137
   62  O  3  Y    0.218056   0.000707   0.003100   0.025792  -0.001305
   63  O  3  Z    0.003740  -0.000054  -0.182666   0.000547  -0.000770
   64  O  3  S    0.099398   0.001311   0.000034   0.055784   0.001373
   65  O  3  X    0.013072   0.000095  -0.003152   0.001512   0.042904
   66  O  3  Y    0.318585   0.000970   0.004592   0.038551  -0.001786
   67  O  3  Z    0.005464  -0.000077  -0.269241   0.000802  -0.001137
   68  O  3  S    0.182474   0.003523   0.001092   0.289846   0.000371
   69  O  3  X    0.011370   0.000179  -0.002279  -0.003860  -0.089992
   70  O  3  Y    0.274008   0.001149   0.004798  -0.090330   0.002895
   71  O  3  Z    0.004764  -0.000107  -0.299268  -0.001214   0.000748
   72  O  3  S    0.035834  -0.000203   0.001023   2.237660   0.008435
   73  O  3  X    0.002982   0.000208  -0.000903  -0.018848  -0.180416
   74  O  3  Y    0.069833   0.002091   0.004955  -0.396902   0.010062
   75  O  3  Z    0.001201  -0.000151  -0.298234  -0.006339   0.000639
   76  O  3 XX   -0.002345   0.000147  -0.000012   0.002786  -0.000049
   77  O  3 YY    0.001765   0.000050   0.000030   0.000482   0.000096
   78  O  3 ZZ    0.005524  -0.000167  -0.000014   0.001197   0.000023
   79  O  3 XY    0.000194  -0.000137  -0.000049  -0.000108  -0.001207
   80  O  3 XZ    0.000101   0.007813  -0.000034  -0.000031  -0.000020
   81  O  3 YZ   -0.000076  -0.000316  -0.000735  -0.000011   0.000002
   82  O  3 XX    0.002514   0.000605  -0.000071   0.036041   0.001109
   83  O  3 YY   -0.007892   0.000040   0.000039   0.009941  -0.000579
   84  O  3 ZZ    0.007174  -0.001163  -0.000129   0.003850   0.000211
   85  O  3 XY   -0.000498  -0.000693  -0.000259  -0.001232   0.010899
   86  O  3 XZ   -0.000111   0.039129  -0.000118  -0.000670   0.000170
   87  O  3 YZ   -0.000305  -0.001576  -0.002473   0.000158  -0.000163
   88  H  4  S   -0.078267   0.000565   0.000842   0.006457  -0.018231
   89  H  4  S   -0.123367   0.001719   0.001989  -0.107555   0.069964
   90  H  4  S   -0.048814   0.001214   0.002969   0.230420  -0.379786
   91  H  4  X    0.012306  -0.000021  -0.000023   0.001311   0.007275
   92  H  4  Y    0.003987  -0.000501  -0.000494  -0.008172   0.002754
   93  H  4  Z    0.000057   0.017845   0.017229  -0.000203   0.000012
   94  H  5  S    0.101423   0.000674  -0.000448   0.014059   0.001056
   95  H  5  S    0.149033   0.000663  -0.000230  -0.063073  -0.061341
   96  H  5  S    0.075545   0.001118  -0.001619   0.172910  -0.105479
   97  H  5  X    0.002826  -0.000126   0.000119  -0.006285  -0.001043
   98  H  5  Y    0.010559   0.000287  -0.000265   0.003859   0.005197
   99  H  5  Z    0.000177  -0.017388   0.017950   0.000108   0.000158
  100  H  6  S    0.101384   0.000722   0.000497   0.014059  -0.001257
  101  H  6  S    0.148950   0.001046   0.000698  -0.062951   0.061950
  102  H  6  S    0.075519   0.001345   0.002164   0.172540   0.100633
  103  H  6  X   -0.001920   0.000103   0.000120   0.006575  -0.001350
  104  H  6  Y    0.010751  -0.000274  -0.000277   0.003377  -0.005242
  105  H  6  Z    0.000163   0.017395   0.017937  -0.000033  -0.000022
  106  H  7  S   -0.078256   0.000615  -0.000833   0.006378   0.018454
  107  H  7  S   -0.123351   0.001993  -0.002376  -0.107146  -0.069603
  108  H  7  S   -0.048710   0.001402  -0.003125   0.229306   0.381471
  109  H  7  X   -0.011928  -0.000000  -0.000038  -0.001971   0.007021
  110  H  7  Y    0.004989   0.000081  -0.000057  -0.008036  -0.003507
  111  H  7  Z    0.000088  -0.017849   0.017252  -0.000077  -0.000099

                     16         17         18         19         20
                    0.0426     0.0621     0.0752     0.0773     0.0979
                     A          A          A          A          A   
    1  C  1  S   -0.010713   0.009708  -0.003834  -0.000267  -0.000122
    2  C  1  S   -0.017513   0.016756  -0.007570  -0.000489  -0.000190
    3  C  1  X   -0.020591   0.015561  -0.033419  -0.002159   0.001337
    4  C  1  Y   -0.038847  -0.060699  -0.046254   0.001421  -0.001490
    5  C  1  Z   -0.000125  -0.001959   0.002647  -0.119935   0.080838
    6  C  1  S    0.082168   0.151927  -0.244828  -0.007581   0.001004
    7  C  1  X   -0.036212   0.007740  -0.055664  -0.003097   0.001856
    8  C  1  Y   -0.076490  -0.103100  -0.100628   0.001076  -0.001477
    9  C  1  Z   -0.000381  -0.003116   0.003068  -0.165855   0.090922
   10  C  1  S   -0.003132  -1.060718   1.357592   0.043358   0.001399
   11  C  1  X   -0.008881   0.296567  -0.244432  -0.010648   0.008455
   12  C  1  Y    0.011082  -0.172838   0.186933   0.011570  -0.004512
   13  C  1  Z    0.001482  -0.008392   0.016819  -0.380042   0.327967
   14  C  1  S   -0.012421  -0.233848   0.859505  -0.002115   0.016807
   15  C  1  X   -0.270946   1.102625  -0.188883   0.011615  -0.023002
   16  C  1  Y    0.871388   0.273318   1.749894   0.029816   0.024566
   17  C  1  Z    0.018157  -0.003617   0.016406   0.737081  -1.373352
   18  C  1 XX   -0.003438   0.008950  -0.004346  -0.000211  -0.000062
   19  C  1 YY    0.002045  -0.001128  -0.002041  -0.000075  -0.000065
   20  C  1 ZZ    0.002930  -0.001733  -0.001063   0.000001   0.000167
   21  C  1 XY    0.002504  -0.006539   0.004769   0.000156   0.000009
   22  C  1 XZ    0.000104  -0.000305   0.000158  -0.001636  -0.002697
   23  C  1 YZ   -0.000081   0.000069  -0.000138   0.000557   0.000787
   24  C  1 XX    0.005655   0.120244  -0.138966  -0.004791   0.000018
   25  C  1 YY    0.031519   0.106386  -0.130140  -0.004865   0.000065
   26  C  1 ZZ    0.017035   0.096228  -0.156892  -0.004965   0.000708
   27  C  1 XY    0.023305  -0.016371   0.002951   0.000239   0.001007
   28  C  1 XZ    0.000656  -0.000782  -0.000321   0.005220  -0.016688
   29  C  1 YZ    0.000032   0.000301   0.000393   0.005561   0.003222
   30  C  2  S   -0.011115   0.009720   0.003924   0.000251  -0.000124
   31  C  2  S   -0.018166   0.016776   0.007743   0.000459  -0.000190
   32  C  2  X    0.016640  -0.020401  -0.029576  -0.001806  -0.001471
   33  C  2  Y   -0.040159  -0.059375   0.048711   0.003496   0.001334
   34  C  2  Z   -0.001457  -0.001349   0.004424  -0.119636  -0.081181
   35  C  2  S    0.084530   0.152488   0.247126   0.005291   0.002361
   36  C  2  X    0.028313  -0.016089  -0.047340  -0.002659  -0.001932
   37  C  2  Y   -0.078626  -0.102399   0.104745   0.005971   0.001842
   38  C  2  Z   -0.002629  -0.002264   0.006721  -0.165457  -0.091322
   39  C  2  S   -0.003123  -1.064170  -1.369434  -0.031271  -0.005927
   40  C  2  X    0.005472  -0.309986  -0.259462  -0.005996  -0.010318
   41  C  2  Y    0.007509  -0.149641  -0.167284   0.004414   0.005395
   42  C  2  Z   -0.001720  -0.000365   0.011918  -0.379107  -0.329241
   43  C  2  S   -0.004426  -0.240527  -0.861238   0.006303  -0.013726
   44  C  2  X    0.363627  -1.079882  -0.333455   0.017504   0.010382
   45  C  2  Y    0.837122   0.363029  -1.730432  -0.059796  -0.026855
   46  C  2  Z    0.011375   0.021070  -0.044214   0.730949   1.375803
   47  C  2 XX   -0.003760   0.009815   0.005067   0.000121  -0.000020
   48  C  2 YY    0.002384  -0.001972   0.001426   0.000066  -0.000022
   49  C  2 ZZ    0.002948  -0.001741   0.001065   0.000033   0.000118
   50  C  2 XY   -0.001998   0.005517   0.004497   0.000029   0.000105
   51  C  2 XZ    0.000043  -0.000105  -0.000014   0.001690  -0.002750
   52  C  2 YZ    0.000052  -0.000027  -0.000112   0.000424  -0.000571
   53  C  2 XX    0.002126   0.122655   0.141054   0.003688   0.000527
   54  C  2 YY    0.035085   0.104560   0.131346   0.003118   0.000950
   55  C  2 ZZ    0.017279   0.096661   0.158463   0.004216   0.001342
   56  C  2 XY   -0.021321   0.014778   0.001977   0.000314  -0.000498
   57  C  2 XZ   -0.000028  -0.000073   0.000474  -0.004690  -0.016945
   58  C  2 YZ    0.000623   0.000045  -0.000662   0.005953  -0.001860
   59  O  3  S    0.018357  -0.025785  -0.000051   0.000127  -0.000066
   60  O  3  S    0.028273  -0.041404  -0.000079   0.000206  -0.000097
   61  O  3  X    0.000691  -0.000523  -0.025324   0.000071  -0.000064
   62  O  3  Y    0.010976  -0.012524   0.001040  -0.000953   0.000122
   63  O  3  Z    0.000271   0.000171  -0.001128   0.058287   0.000047
   64  O  3  S   -0.138372   0.142873   0.000369  -0.000573   0.000568
   65  O  3  X    0.000710  -0.000972  -0.035389  -0.000210  -0.000115
   66  O  3  Y    0.008821  -0.023396   0.001446  -0.000967   0.000144
   67  O  3  Z    0.000254   0.000079  -0.001132   0.063321   0.000039
   68  O  3  S    0.007723   0.320843   0.000195  -0.002723   0.001911
   69  O  3  X    0.001289  -0.002209  -0.128748   0.001315  -0.000336
   70  O  3  Y    0.057507  -0.045728   0.005325  -0.003427  -0.000047
   71  O  3  Z    0.001249   0.000303  -0.003717   0.219631   0.000236
   72  O  3  S   -0.599512   2.176770   0.005240  -0.013259   0.012361
   73  O  3  X   -0.016621  -0.025760  -1.344143  -0.031505  -0.005579
   74  O  3  Y   -0.339054  -0.594203   0.053664   0.010177  -0.005768
   75  O  3  Z   -0.006178  -0.010650   0.025433  -0.260276  -0.000102
   76  O  3 XX   -0.003357  -0.000861  -0.000098   0.000013   0.000104
   77  O  3 YY   -0.001013   0.003178   0.000111  -0.000071   0.000011
   78  O  3 ZZ   -0.002283   0.002882   0.000005   0.000039  -0.000080
   79  O  3 XY    0.000095   0.000192  -0.001425   0.000011  -0.000064
   80  O  3 XZ    0.000036   0.000061  -0.000030   0.000074   0.003695
   81  O  3 YZ    0.000024   0.000010  -0.000032   0.001973  -0.000146
   82  O  3 XX   -0.031104  -0.006648  -0.000335   0.000118   0.000564
   83  O  3 YY   -0.017841   0.013038   0.000459  -0.000232   0.000009
   84  O  3 ZZ   -0.022731   0.003286   0.000064   0.000264  -0.000073
   85  O  3 XY    0.000726   0.000953  -0.005638  -0.000053  -0.000218
   86  O  3 XZ    0.000236   0.000185  -0.000111   0.000306   0.011468
   87  O  3 YZ    0.000092   0.000240  -0.000140   0.008004  -0.000456
   88  H  4  S   -0.013414  -0.011681  -0.001019  -0.000527  -0.000159
   89  H  4  S   -0.037790   0.035816   0.013034   0.000129  -0.003514
   90  H  4  S   -0.147483  -0.249612  -0.217856  -0.006488  -0.003569
   91  H  4  X    0.000777   0.013474   0.007126   0.000133  -0.000059
   92  H  4  Y    0.007795  -0.005037   0.007774   0.000516   0.000036
   93  H  4  Z    0.000295  -0.000258   0.000330  -0.006996  -0.003409
   94  H  5  S    0.013220   0.012438  -0.016532  -0.000283  -0.000196
   95  H  5  S   -0.053478  -0.020039   0.039813   0.002146   0.000286
   96  H  5  S    0.333536   0.189481  -0.496215  -0.013083  -0.005722
   97  H  5  X    0.004628  -0.011514  -0.008926  -0.000183  -0.000158
   98  H  5  Y    0.008302   0.007079  -0.006284  -0.000154   0.000149
   99  H  5  Z    0.000032   0.000265   0.000158  -0.004511   0.000344
  100  H  6  S    0.013281   0.012391   0.016545   0.000189  -0.000192
  101  H  6  S   -0.052434  -0.019785  -0.039528  -0.001410   0.000499
  102  H  6  S    0.336948   0.189789   0.496448   0.012665  -0.005882
  103  H  6  X   -0.004001   0.012064  -0.008364  -0.000297   0.000147
  104  H  6  Y    0.008581   0.006134   0.006943   0.000239   0.000136
  105  H  6  Z    0.000237  -0.000127   0.000374  -0.004508  -0.000344
  106  H  7  S   -0.013077  -0.011699   0.001101   0.000647  -0.000140
  107  H  7  S   -0.039151   0.036153  -0.013069  -0.000277  -0.003426
  108  H  7  S   -0.140858  -0.248854   0.221393   0.009256  -0.002582
  109  H  7  X    0.000004  -0.013856   0.006414   0.000230   0.000049
  110  H  7  Y    0.007755  -0.003934  -0.008311  -0.000207  -0.000118
  111  H  7  Z   -0.000055   0.000055   0.000045  -0.007018   0.003403

                     21         22         23         24         25
                    0.1235     0.1316     0.1738     0.1950     0.2144
                     A          A          A          A          A   
    1  C  1  S   -0.026889  -0.016846   0.032926   0.012477  -0.032966
    2  C  1  S   -0.048026  -0.030040   0.058748   0.022424  -0.051778
    3  C  1  X    0.037696   0.006172  -0.020122  -0.039914  -0.083093
    4  C  1  Y   -0.019161  -0.032550   0.028026  -0.034677   0.093951
    5  C  1  Z   -0.000212  -0.000343  -0.000311  -0.000518   0.003411
    6  C  1  S   -0.363750  -0.104864   0.686855   0.794888   0.475860
    7  C  1  X    0.063911  -0.003086  -0.027942  -0.071559  -0.171837
    8  C  1  Y   -0.028791  -0.039431   0.037061  -0.021183   0.137723
    9  C  1  Z   -0.000696  -0.000253   0.000387   0.000890   0.005754
   10  C  1  S    2.073409   0.734657  -4.242798  -4.272202  -0.508647
   11  C  1  X    0.700955   0.155473  -0.088560   0.440336  -0.404569
   12  C  1  Y   -0.132024  -0.363815   0.081041  -0.237648   0.631440
   13  C  1  Z   -0.006205  -0.007680  -0.008254  -0.014359   0.019525
   14  C  1  S    1.178533  -9.277710  -5.800155  -0.941615  -0.540451
   15  C  1  X    0.173285   4.228657   1.475650   0.097356   1.229442
   16  C  1  Y   -0.101651  -0.235798  -0.043059  -0.131004   0.060006
   17  C  1  Z    0.014922  -0.068204  -0.031150  -0.012890  -0.008752
   18  C  1 XX   -0.007755   0.002940   0.009429   0.005650  -0.016616
   19  C  1 YY   -0.016930  -0.004942   0.023085   0.003080   0.014631
   20  C  1 ZZ    0.006038  -0.005206  -0.005106   0.011110   0.014058
   21  C  1 XY   -0.008031  -0.002598   0.000679   0.008851   0.007816
   22  C  1 XZ   -0.000078  -0.000171  -0.000139   0.000296   0.000537
   23  C  1 YZ   -0.000471   0.000042   0.000680  -0.000201  -0.000146
   24  C  1 XX   -0.359321  -0.110276   0.458996   0.445955   0.151038
   25  C  1 YY   -0.298130  -0.136970   0.537803   0.472447   0.214069
   26  C  1 ZZ   -0.243446  -0.132154   0.439651   0.490715   0.174729
   27  C  1 XY    0.013942   0.002938  -0.010689   0.109221  -0.004301
   28  C  1 XZ    0.002622  -0.000467   0.000122   0.003632  -0.000147
   29  C  1 YZ   -0.001270  -0.000202   0.002905  -0.000893   0.000524
   30  C  2  S   -0.026883   0.016785  -0.033077   0.012203  -0.032966
   31  C  2  S   -0.048030   0.029981  -0.059064   0.021995  -0.051786
   32  C  2  X   -0.039160   0.008677  -0.022529   0.036745   0.090536
   33  C  2  Y   -0.015991   0.031931  -0.026045  -0.038068   0.087004
   34  C  2  Z   -0.000473   0.000545  -0.001253  -0.000614  -0.000232
   35  C  2  S   -0.363730   0.106591  -0.698571   0.795491   0.476901
   36  C  2  X   -0.066033   0.000377  -0.030803   0.069245   0.182667
   37  C  2  Y   -0.023442   0.039630  -0.034376  -0.027327   0.123565
   38  C  2  Z   -0.000366   0.000926  -0.000816  -0.001425  -0.001214
   39  C  2  S    2.072569  -0.735736   4.303995  -4.265833  -0.513004
   40  C  2  X   -0.709468   0.185793  -0.084320  -0.464206   0.455270
   41  C  2  Y   -0.074602   0.350708  -0.071440  -0.205578   0.596741
   42  C  2  Z    0.002957   0.003045  -0.011420   0.006651   0.001635
   43  C  2  S    1.161738   9.280669   5.811780  -0.904708  -0.553177
   44  C  2  X   -0.188137   4.232590   1.475104  -0.097959  -1.225703
   45  C  2  Y   -0.088064  -0.107727  -0.077103  -0.123709   0.159644
   46  C  2  Z   -0.016872  -0.062948  -0.030905   0.009837   0.013556
   47  C  2 XX   -0.006693  -0.003202  -0.009583   0.004414  -0.017516
   48  C  2 YY   -0.018013   0.005317  -0.023183   0.004247   0.015532
   49  C  2 ZZ    0.006027   0.005265   0.004987   0.011206   0.014063
   50  C  2 XY    0.007066  -0.001810  -0.000579  -0.008967  -0.004798
   51  C  2 XZ    0.000185   0.000105   0.000162   0.000033   0.000351
   52  C  2 YZ   -0.000442   0.000024  -0.000422  -0.000100   0.000146
   53  C  2 XX   -0.360860   0.112511  -0.466914   0.429736   0.152628
   54  C  2 YY   -0.296586   0.137120  -0.543408   0.487038   0.213571
   55  C  2 ZZ   -0.243637   0.133095  -0.446970   0.491195   0.175246
   56  C  2 XY   -0.008060   0.005715  -0.016325  -0.105792   0.010314
   57  C  2 XZ    0.002371   0.000458  -0.000596  -0.000334   0.000065
   58  C  2 YZ   -0.001050  -0.000046  -0.000850   0.000651   0.000925
   59  O  3  S    0.006061  -0.000006  -0.000008   0.008582   0.054939
   60  O  3  S    0.009094  -0.000015  -0.000018   0.015999   0.097834
   61  O  3  X    0.000874   0.016081   0.045390   0.004202   0.002296
   62  O  3  Y    0.021965  -0.000628  -0.002119   0.098165   0.054575
   63  O  3  Z    0.000426  -0.000411  -0.000521   0.001711   0.000868
   64  O  3  S   -0.117561   0.000141   0.000355  -0.008684   0.002174
   65  O  3  X    0.001413   0.031135   0.074582   0.005490   0.003926
   66  O  3  Y    0.035640  -0.001237  -0.003386   0.125977   0.094074
   67  O  3  Z    0.000659  -0.000538  -0.000750   0.002141   0.001484
   68  O  3  S    0.586469  -0.001494  -0.004381  -0.096929  -2.493925
   69  O  3  X   -0.005092   0.047764   0.020192   0.008554   0.008205
   70  O  3  Y   -0.126944  -0.001185  -0.000451   0.245881   0.188801
   71  O  3  Z   -0.001794  -0.001857  -0.000103   0.004903   0.003108
   72  O  3  S    0.334941  -0.001329  -0.033024   5.211478   3.001805
   73  O  3  X   -0.022143   1.335494   1.762236  -0.106954  -0.014091
   74  O  3  Y   -0.497007  -0.054728  -0.058271  -2.572215  -0.284183
   75  O  3  Z   -0.008835  -0.016036  -0.010057  -0.043572  -0.006103
   76  O  3 XX   -0.002395  -0.000188   0.000184  -0.001738   0.014952
   77  O  3 YY   -0.003917   0.000191  -0.000171   0.001466  -0.001384
   78  O  3 ZZ    0.002939  -0.000009  -0.000021   0.003883  -0.001179
   79  O  3 XY   -0.000074  -0.002777   0.002298   0.000152  -0.000769
   80  O  3 XZ    0.000106  -0.000039   0.000044   0.000093  -0.000252
   81  O  3 YZ   -0.000135   0.000040   0.000033  -0.000043   0.000002
   82  O  3 XX   -0.028627  -0.000729   0.000897   0.024681   0.195580
   83  O  3 YY   -0.052201   0.000649  -0.000800   0.023444   0.168065
   84  O  3 ZZ   -0.039616   0.000084   0.000087   0.043995   0.172910
   85  O  3 XY   -0.001124  -0.009170   0.013044   0.000071  -0.001323
   86  O  3 XZ    0.000008  -0.000140   0.000215   0.000215  -0.000324
   87  O  3 YZ   -0.000254   0.000156   0.000086  -0.000441  -0.000105
   88  H  4  S   -0.058196   0.000868   0.048090   0.027144  -0.042367
   89  H  4  S   -0.128952   0.033113   0.067399  -0.139502  -0.050483
   90  H  4  S   -1.539462  -0.038621   1.501242   1.428082  -0.887207
   91  H  4  X   -0.003975   0.004061   0.008156   0.025545  -0.017604
   92  H  4  Y   -0.015726  -0.012018   0.011570   0.017831   0.009932
   93  H  4  Z   -0.000159  -0.000449  -0.000033   0.000557   0.000470
   94  H  5  S   -0.052156   0.007238  -0.080506  -0.027496   0.001298
   95  H  5  S   -0.011242   0.143610  -0.043897   0.037509  -0.016370
   96  H  5  S   -1.608143  -0.034190  -2.239629  -0.575802   0.901936
   97  H  5  X   -0.009367   0.000442   0.001655   0.011689   0.011718
   98  H  5  Y    0.018561  -0.012194   0.025374   0.004466  -0.012530
   99  H  5  Z    0.000289  -0.000273   0.000340  -0.000067  -0.000558
  100  H  6  S   -0.052196  -0.007277   0.080692  -0.026854   0.001256
  101  H  6  S   -0.011161  -0.143447   0.043953   0.038536  -0.016431
  102  H  6  S   -1.609154   0.033280   2.239164  -0.559529   0.899832
  103  H  6  X    0.010812   0.001433  -0.000377  -0.011307  -0.012694
  104  H  6  Y    0.017740   0.012144  -0.025379   0.005234  -0.011528
  105  H  6  Z    0.000338   0.000143  -0.000552   0.000255   0.000160
  106  H  7  S   -0.058188  -0.000955  -0.048331   0.026690  -0.042361
  107  H  7  S   -0.129013  -0.033090  -0.065415  -0.139714  -0.050372
  108  H  7  S   -1.538589   0.036115  -1.513370   1.415663  -0.886858
  109  H  7  X    0.002690   0.005057   0.007505  -0.023927   0.018390
  110  H  7  Y   -0.015987   0.011659  -0.012375   0.019753   0.008498
  111  H  7  Z   -0.000385  -0.000035  -0.000437   0.000082  -0.000176

                     26         27         28         29         30
                    0.2301     0.2371     0.2401     0.2829     0.2896
                     A          A          A          A          A   
    1  C  1  S   -0.000277  -0.007217   0.000685   0.033975   0.014723
    2  C  1  S   -0.000370  -0.012990  -0.000124   0.054013   0.020444
    3  C  1  X   -0.007210  -0.039281   0.115321   0.043447   0.007251
    4  C  1  Y   -0.004987  -0.101830   0.090742   0.019172  -0.006001
    5  C  1  Z   -0.028244  -0.001481  -0.001109  -0.000084  -0.000489
    6  C  1  S    0.009710  -0.280951  -0.208986   0.395626  -1.103527
    7  C  1  X   -0.006420  -0.050359   0.126564   0.134884   0.105638
    8  C  1  Y   -0.005756  -0.097461   0.086439  -0.031470  -0.055086
    9  C  1  Z    0.018919  -0.001274   0.000894  -0.001509  -0.002733
   10  C  1  S   -0.039885   1.856169   1.095451  -4.912807   4.398068
   11  C  1  X   -0.054717  -0.769931   0.724320   2.158109   0.111495
   12  C  1  Y   -0.049102  -0.973556   0.912739  -0.308033   0.271446
   13  C  1  Z   -0.461125  -0.010131  -0.011549  -0.033625   0.003911
   14  C  1  S    0.207938  -0.215751  -2.132014  -1.991851   7.625739
   15  C  1  X   -0.135623  -0.149831   1.673420   0.573827  -3.408943
   16  C  1  Y   -0.091820  -1.339566   1.785645   0.044623   0.902325
   17  C  1  Z   -0.625700  -0.030193  -0.025136  -0.006048   0.062167
   18  C  1 XX    0.000255  -0.002298  -0.005750   0.012429   0.004622
   19  C  1 YY   -0.000391  -0.005713   0.003924  -0.011930  -0.017299
   20  C  1 ZZ    0.000375  -0.000687  -0.003900   0.002211  -0.016938
   21  C  1 XY    0.000912   0.008307  -0.013414  -0.006841  -0.010291
   22  C  1 XZ   -0.002117   0.000255  -0.000448  -0.000365  -0.000491
   23  C  1 YZ    0.001316  -0.000135   0.000218  -0.000234   0.000143
   24  C  1 XX    0.006004  -0.178001  -0.126874   0.062154  -0.508016
   25  C  1 YY    0.002169  -0.146640  -0.085469   0.393245  -0.574410
   26  C  1 ZZ    0.006800  -0.181985  -0.133602   0.352989  -0.594273
   27  C  1 XY    0.001799  -0.035454  -0.048469   0.139222   0.032272
   28  C  1 XZ    0.031250  -0.001411  -0.001303   0.008226   0.001361
   29  C  1 YZ    0.036429   0.000985   0.002190  -0.000648   0.001513
   30  C  2  S    0.000210  -0.007128  -0.000803   0.033451  -0.015891
   31  C  2  S    0.000276  -0.012895  -0.000059   0.053339  -0.022260
   32  C  2  X   -0.006598   0.029059   0.108110  -0.041829   0.009235
   33  C  2  Y    0.006621  -0.102925  -0.101462   0.022643   0.004439
   34  C  2  Z   -0.028038  -0.002031  -0.004390   0.000862  -0.000234
   35  C  2  S   -0.006968  -0.288617   0.207322   0.440502   1.094361
   36  C  2  X   -0.005626   0.040147   0.119878  -0.134093   0.113902
   37  C  2  Y    0.005825  -0.099576  -0.098057  -0.019179   0.046759
   38  C  2  Z    0.019088  -0.002254  -0.002330   0.001020  -0.001005
   39  C  2  S    0.030889   1.888873  -1.078826  -5.094728  -4.250531
   40  C  2  X   -0.050898   0.677694   0.654934  -2.182563   0.157243
   41  C  2  Y    0.070341  -1.014552  -0.985923  -0.148259  -0.278267
   42  C  2  Z   -0.458949  -0.023571  -0.043646   0.026107  -0.005623
   43  C  2  S   -0.206435  -0.238448   2.125197  -2.242388  -7.557149
   44  C  2  X   -0.127852   0.021056   1.522245  -0.681983  -3.449400
   45  C  2  Y    0.124723  -1.312845  -1.936886   0.068525  -0.627801
   46  C  2  Z   -0.622349  -0.014290  -0.088222   0.009723   0.038348
   47  C  2 XX   -0.000137  -0.003585   0.003800   0.013184  -0.006263
   48  C  2 YY    0.000232  -0.004541  -0.002021  -0.012029   0.019041
   49  C  2 ZZ   -0.000252  -0.000810   0.003942   0.002825   0.016896
   50  C  2 XY    0.000884  -0.008276  -0.014286   0.004303  -0.008242
   51  C  2 XZ    0.002252  -0.000020  -0.000013  -0.000159   0.000218
   52  C  2 YZ    0.001162  -0.000036  -0.000058  -0.000292   0.000167
   53  C  2 XX   -0.004389  -0.176804   0.118151   0.065463   0.512894
   54  C  2 YY   -0.003293  -0.155481   0.092154   0.434120   0.558444
   55  C  2 ZZ   -0.003141  -0.186599   0.132516   0.378118   0.584929
   56  C  2 XY    0.002803   0.038791  -0.051418  -0.105711   0.040982
   57  C  2 XZ   -0.028079  -0.000108  -0.000326   0.004134  -0.000133
   58  C  2 YZ    0.038932   0.000278   0.000592   0.002438   0.000652
   59  O  3  S    0.000031   0.018073   0.000175  -0.000492   0.000013
   60  O  3  S    0.000046   0.035519   0.000335   0.004375  -0.000068
   61  O  3  X   -0.003933  -0.000862   0.042078  -0.002246   0.135915
   62  O  3  Y    0.002055  -0.009572  -0.001693  -0.105287  -0.003850
   63  O  3  Z   -0.105883  -0.000128  -0.007806  -0.001758  -0.001339
   64  O  3  S   -0.000279   0.076535   0.000281  -0.059412   0.000490
   65  O  3  X   -0.005850  -0.000584   0.066331  -0.001738   0.194551
   66  O  3  Y    0.002250   0.003760  -0.002544  -0.115706  -0.006051
   67  O  3  Z   -0.109780   0.000132  -0.008433  -0.001955  -0.001969
   68  O  3  S    0.000167  -1.290491  -0.009011   1.296385  -0.017241
   69  O  3  X   -0.004459  -0.001793   0.006113  -0.034652   0.651063
   70  O  3  Y    0.007737  -0.035715  -0.000708  -1.028338  -0.010680
   71  O  3  Z   -0.431333  -0.000723  -0.031162  -0.016583  -0.006705
   72  O  3  S    0.002630   0.294507   0.011553  10.352739  -0.165045
   73  O  3  X    0.022546   0.105709  -0.399530  -0.185653  -6.090967
   74  O  3  Y   -0.044696   2.321152   0.031333  -1.744122   0.277478
   75  O  3  Z    2.440506   0.038711   0.156124  -0.025465   0.081024
   76  O  3 XX   -0.000019   0.000292   0.000476  -0.005947   0.000047
   77  O  3 YY   -0.000109   0.009094  -0.000404   0.004810  -0.000039
   78  O  3 ZZ    0.000112   0.002814   0.000023   0.012473  -0.000208
   79  O  3 XY   -0.000346   0.000357   0.006677   0.000478  -0.000598
   80  O  3 XZ    0.000165   0.000048   0.000115   0.000322  -0.000015
   81  O  3 YZ    0.004199   0.000117   0.000049  -0.000145   0.000066
   82  O  3 XX   -0.000174   0.071979   0.002852   0.021954  -0.003414
[...]
   6  A         -153.4618719632    5.993     0.0032  0.0007 -0.0237    0.0001
   7  A         -153.4460387022    6.424    -0.0137  0.0017 -0.0660    0.0007
   8  A         -153.4416774660    6.542     0.5538 -0.0226 -0.0056    0.0492
   9  A         -153.4310622714    6.831     0.0013  0.0239 -0.0016    0.0001
  10  A         -153.4193695148    7.149     0.0005 -0.0001 -0.0014    0.0000
  11  A         -153.4068009963    7.491    -0.0163  0.0126 -0.7179    0.0947
  12  A         -153.3732145331    8.405     0.0004  0.0001  0.0009    0.0000
  13  A         -153.3656756139    8.610    -0.0024  0.0137 -0.8556    0.1545
  14  A         -153.3533398407    8.946     0.0128  0.3212  0.0051    0.0227
  15  A         -153.3527357304    8.962    -0.0012 -0.0058  0.0053    0.0000
  16  A         -153.3344414045    9.460     0.0004 -0.0042 -0.0001    0.0000
  17  A         -153.3280755137    9.633     0.0241  0.5868  0.0101    0.0814
  18  A         -153.3274323293    9.651     0.0113 -0.0217  0.0020    0.0001
  19  A         -153.3180420621    9.906     0.3701 -0.0147 -0.0143    0.0333
  20  A         -153.3074072827   10.196     0.0082  0.2361  0.0020    0.0139
  
 TRANSITION        EXCITATION            TRANSITION DIPOLE, A.U.     OSCILLATOR
                       EV              X       Y       Z       DIP    STRENGTH

  1  ->  2           0.933          0.0076 -0.0342  2.0476   2.0479    0.0958
  1  ->  3           1.665          0.0003 -0.0003  0.2088   0.2088    0.0018
  1  ->  4           1.668          0.0035  0.0114  0.0681   0.0691    0.0002
  1  ->  5           2.108          0.0206 -0.0014  0.2561   0.2570    0.0034
  1  ->  6           2.589          0.0005 -0.0202 -0.0002   0.0202    0.0000
  1  ->  7           3.020         -0.0006  0.0082  0.0004   0.0082    0.0000
  1  ->  8           3.139         -0.0072 -0.2234 -0.0110   0.2238    0.0039
  1  ->  9           3.427         -1.7892  0.0720  0.0617   1.7917    0.2696
  1  -> 10           3.746          0.0409 -0.0269  1.4496   1.4504    0.1931
  1  -> 11           4.088         -0.0017 -0.0085 -0.0009   0.0087    0.0000
  1  -> 12           5.001         -0.0144  0.0001  0.0230   0.0271    0.0001
  1  -> 13           5.207         -0.0008 -0.0108  0.0005   0.0108    0.0000
  1  -> 14           5.542          0.0654 -0.0025 -0.0015   0.0654    0.0006
  1  -> 15           5.559         -0.0024 -0.0004  0.1694   0.1695    0.0039
  1  -> 16           6.057          0.0026 -0.0025  0.2134   0.2134    0.0068
  1  -> 17           6.230          0.0484 -0.0024 -0.0025   0.0485    0.0004
  1  -> 18           6.247         -0.0025 -0.0162 -0.0001   0.0164    0.0000
  1  -> 19           6.503          0.0279  0.6843  0.0115   0.6849    0.0747
  1  -> 20           6.792          0.0677 -0.0026 -0.0166   0.0698    0.0008
  2  ->  3           0.732          0.9188 -2.7684 -0.0552   2.9175    0.1527
  2  ->  4           0.735         -3.2602 -0.7373  0.0167   3.3426    0.2012
  2  ->  5           1.175         -0.0487 -1.1577 -0.0180   1.1588    0.0387
  2  ->  6           1.656          0.5160 -0.0225 -0.0001   0.5165    0.0108
  2  ->  7           2.087          0.0456  0.0001 -0.1163   0.1249    0.0008
  2  ->  8           2.206          0.0236 -0.0468  2.6608   2.6613    0.3827
  2  ->  9           2.495         -0.0006 -0.0030 -0.0001   0.0031    0.0000
  2  -> 10           2.813         -0.0107 -0.2765  0.0027   0.2767    0.0053
  2  -> 11           3.155          0.4713 -0.0191  0.0013   0.4717    0.0172
  2  -> 12           4.069          0.0028  0.0705  0.0012   0.0705    0.0005
  2  -> 13           4.274          0.3139 -0.0158 -0.0002   0.3143    0.0103
  2  -> 14           4.610         -0.0004  0.0025 -0.0001   0.0026    0.0000
  2  -> 15           4.626         -0.0264 -0.6136 -0.0093   0.6143    0.0428
  2  -> 16           5.124          0.0017  0.0913  0.0027   0.0914    0.0010
  2  -> 17           5.297         -0.0003 -0.0012 -0.0008   0.0015    0.0000
  2  -> 18           5.315         -0.0019  0.0003 -0.0316   0.0317    0.0001
  2  -> 19           5.570          0.0174 -0.0017  0.1107   0.1121    0.0017
  2  -> 20           5.859          0.0028 -0.0206 -0.0003   0.0208    0.0001
  3  ->  4           0.002         -1.4861 -0.1117  0.0134   1.4903    0.0001
  3  ->  5           0.443         -1.2343 -0.3476  0.0113   1.2824    0.0178
  3  ->  6           0.924         -2.9320  0.9067  0.0612   3.0696    0.2132
  3  ->  7           1.355         -0.1881  0.0519 -0.0054   0.1952    0.0013
  3  ->  8           1.473         -0.0000 -0.0066  0.2082   0.2083    0.0016
  3  ->  9           1.762         -0.0172  0.0210 -0.8031   0.8036    0.0279
  3  -> 10           2.080         -0.0543  0.4436  0.0231   0.4475    0.0102
  3  -> 11           2.422         -0.8733  0.0098  0.0186   0.8735    0.0453
  3  -> 12           3.336          0.0238 -0.0287 -0.0014   0.0373    0.0001
  3  -> 13           3.541         -0.0567  0.0376  0.0180   0.0704    0.0004
  3  -> 14           3.877         -0.0007 -0.0093  0.0139   0.0168    0.0000
  3  -> 15           3.894          0.2285  1.9894  0.0307   2.0027    0.3826
  3  -> 16           4.391         -0.5509 -0.0168  0.0069   0.5512    0.0327
  3  -> 17           4.565          0.0005  0.0008  0.0251   0.0251    0.0001
  3  -> 18           4.582         -0.0019  0.0013 -0.0054   0.0059    0.0000
  3  -> 19           4.838         -0.0050  0.0206 -1.4859   1.4860    0.2617
  3  -> 20           5.127          0.0073 -0.0353  0.0418   0.0552    0.0004
  4  ->  5           0.440          3.8271 -0.2841 -0.0575   3.8380    0.1589
  4  ->  6           0.921         -1.0494 -2.4309 -0.0283   2.6479    0.1583
  4  ->  7           1.352         -0.0660 -0.1367 -0.0037   0.1519    0.0008
  4  ->  8           1.471         -0.0016 -0.0019  0.0678   0.0679    0.0002
  4  ->  9           1.760          0.0425 -0.0440  2.5174   2.5181    0.2734
  4  -> 10           2.078          0.2298  0.1306 -0.0439   0.2679    0.0037
  4  -> 11           2.420         -0.2701  0.0863  0.0027   0.2836    0.0048
  4  -> 12           3.334         -0.0781 -0.0056  0.0022   0.0784    0.0005
  4  -> 13           3.539         -0.0228 -0.0662  0.0033   0.0701    0.0004
  4  -> 14           3.875          0.0019 -0.0021 -0.0450   0.0450    0.0002
  4  -> 15           3.891         -0.4349  0.6558  0.0196   0.7871    0.0591
  4  -> 16           4.389          1.7241 -0.0822 -0.0265   1.7262    0.3204
  4  -> 17           4.562         -0.0045  0.0017 -0.0794   0.0795    0.0007
  4  -> 18           4.580         -0.0001 -0.0015  0.0012   0.0019    0.0000
  4  -> 19           4.835         -0.0022  0.0233 -0.4731   0.4737    0.0266
  4  -> 20           5.125          0.0014  0.0020 -0.1290   0.1290    0.0021
  5  ->  6           0.481         -0.6957  0.0276  0.0140   0.6964    0.0057
  5  ->  7           0.912          0.0031 -0.0000 -0.0063   0.0070    0.0000
  5  ->  8           1.031          0.0018 -0.0049  0.1389   0.1390    0.0005
  5  ->  9           1.319          0.0036  0.0062 -0.0007   0.0072    0.0000
  5  -> 10           1.638          0.0288  0.6605  0.0125   0.6612    0.0175
  5  -> 11           1.980          2.9162 -0.1185 -0.0485   2.9190    0.4132
  5  -> 12           2.894          0.0011  0.0265  0.0005   0.0265    0.0000
  5  -> 13           3.099         -0.1144  0.0015  0.0045   0.1145    0.0010
  5  -> 14           3.434          0.0000  0.0025  0.0000   0.0025    0.0000
  5  -> 15           3.451         -0.0137 -0.3478 -0.0064   0.3481    0.0102
  5  -> 16           3.949         -0.0336 -0.7688 -0.0130   0.7696    0.0573
  5  -> 17           4.122         -0.0000  0.0030  0.0005   0.0030    0.0000
  5  -> 18           4.139         -0.0010 -0.0003  0.0096   0.0097    0.0000
  5  -> 19           4.395          0.0411 -0.0125  0.6179   0.6193    0.0413
  5  -> 20           4.684          0.0105  0.0220 -0.0009   0.0244    0.0001
  6  ->  7           0.431          0.0021  0.0675  0.0012   0.0676    0.0000
  6  ->  8           0.550          0.0028 -0.0104  0.0002   0.0107    0.0000
  6  ->  9           0.838         -0.0205  0.0044 -0.0657   0.0690    0.0001
  6  -> 10           1.157         -1.0503  0.0440  0.0125   1.0513    0.0313
  6  -> 11           1.499          0.0562  1.3704  0.0246   1.3718    0.0691
  6  -> 12           2.412          0.0901 -0.0036 -0.0016   0.0902    0.0005
  6  -> 13           2.618          0.0029 -0.0985  0.0001   0.0985    0.0006
  6  -> 14           2.953         -0.0073  0.0014 -0.0685   0.0690    0.0003
  6  -> 15           2.970          1.2241 -0.0464 -0.0090   1.2250    0.1092
  6  -> 16           3.468          0.8117 -0.0333 -0.0016   0.8123    0.0561
  6  -> 17           3.641         -0.0024  0.0003 -0.0099   0.0102    0.0000
  6  -> 18           3.658          0.0003  0.0008  0.0004   0.0009    0.0000
  6  -> 19           3.914          0.0000 -0.0120 -0.0019   0.0122    0.0000
  6  -> 20           4.203         -0.0596 -0.0058 -0.0120   0.0611    0.0004
  7  ->  8           0.119         -0.0011 -0.0111 -0.0000   0.0111    0.0000
  7  ->  9           0.408          0.1168 -0.0042 -0.0155   0.1179    0.0001
  7  -> 10           0.726         -0.0608  0.0037 -0.0609   0.0861    0.0001
  7  -> 11           1.068          0.0029  0.0715  0.0009   0.0715    0.0001
  7  -> 12           1.982         -1.7252  0.0698  0.0193   1.7267    0.1448
  7  -> 13           2.187         -0.0028 -0.0282 -0.0015   0.0283    0.0000
  7  -> 14           2.522          0.0000 -0.0186  1.1607   1.1608    0.0833
  7  -> 15           2.539         -0.0434  0.0014  0.0242   0.0497    0.0002
  7  -> 16           3.037         -0.0236  0.0014 -0.0314   0.0393    0.0001
  7  -> 17           3.210         -0.0058 -0.0022  0.2014   0.2015    0.0032
  7  -> 18           3.227         -0.0000 -0.0067 -0.0082   0.0105    0.0000
  7  -> 19           3.483         -0.0011 -0.0422 -0.0011   0.0423    0.0002
  7  -> 20           3.772          0.0005 -0.0042  0.3212   0.3213    0.0095
  8  ->  9           0.289         -2.7051  0.1096  0.0643   2.7081    0.0519
  8  -> 10           0.607          0.0517 -0.0255  1.4022   1.4034    0.0293
  8  -> 11           0.949          0.0064  0.0020 -0.0010   0.0068    0.0000
  8  -> 12           1.863         -0.0734  0.0038 -0.0472   0.0873    0.0003
  8  -> 13           2.068         -0.0043 -0.0165 -0.0028   0.0172    0.0000
  8  -> 14           2.404          0.1078 -0.0048  0.0498   0.1189    0.0008
  8  -> 15           2.420         -0.0116  0.0083 -0.4326   0.4328    0.0111
  8  -> 16           2.918          0.0104 -0.0125  0.7635   0.7637    0.0417
  8  -> 17           3.091          0.1277 -0.0030  0.0035   0.1278    0.0012
  8  -> 18           3.109         -0.0018  0.0642  0.0007   0.0642    0.0003
  8  -> 19           3.364          0.0357  0.8823  0.0161   0.8832    0.0643
  8  -> 20           3.654          0.1178 -0.0052 -0.0056   0.1180    0.0012
  9  -> 10           0.318         -0.0054  0.0091 -0.0004   0.0106    0.0000
  9  -> 11           0.660         -0.0469  0.0281 -1.5432   1.5441    0.0386
  9  -> 12           1.574          0.0007  0.0011  0.0016   0.0021    0.0000
  9  -> 13           1.779         -0.0003  0.0364 -2.1205   2.1208    0.1961
  9  -> 14           2.115         -0.0034 -0.0969 -0.0033   0.0970    0.0005
  9  -> 15           2.131         -0.0023 -0.0098  0.0120   0.0156    0.0000
  9  -> 16           2.629          0.0017 -0.0128  0.0022   0.0131    0.0000
  9  -> 17           2.802         -0.0032 -0.1321 -0.0022   0.1322    0.0012
  9  -> 18           2.820          0.0576  0.0025 -0.0017   0.0577    0.0002
  9  -> 19           3.075          1.4841 -0.0593 -0.0431   1.4859    0.1664
  9  -> 20           3.365         -0.0055 -0.0731  0.0015   0.0733    0.0004
 10  -> 11           0.342         -0.4088  0.0168  0.0339   0.4105    0.0014
 10  -> 12           1.256         -0.0018  0.0034 -0.0001   0.0038    0.0000
 10  -> 13           1.461          2.6505 -0.1091  0.0117   2.6527    0.2519
 10  -> 14           1.797          0.0018  0.0021  0.0000   0.0027    0.0000
 10  -> 15           1.813         -0.0276 -0.2899 -0.0060   0.2913    0.0038
 10  -> 16           2.311         -0.0159 -0.3932 -0.0048   0.3935    0.0088
 10  -> 17           2.484          0.0006  0.0007 -0.0003   0.0010    0.0000
 10  -> 18           2.502          0.0022 -0.0000 -0.0140   0.0142    0.0000
 10  -> 19           2.757         -0.0525  0.0022  0.0761   0.0925    0.0006
 10  -> 20           3.047         -0.0210 -0.0782 -0.0014   0.0810    0.0005
 11  -> 12           0.914          0.0180 -0.0010 -0.0000   0.0180    0.0000
 11  -> 13           1.119          0.0173  0.5941  0.0143   0.5945    0.0097
 11  -> 14           1.455          0.0052  0.0004 -0.0124   0.0135    0.0000
 11  -> 15           1.471         -0.9895  0.0349  0.0079   0.9902    0.0353
 11  -> 16           1.969          1.6690 -0.0681 -0.0290   1.6706    0.1346
 11  -> 17           2.142         -0.0020 -0.0003  0.0392   0.0393    0.0001
 11  -> 18           2.160         -0.0005  0.0006 -0.0013   0.0015    0.0000
 11  -> 19           2.415         -0.0032 -0.0062  0.0015   0.0071    0.0000
 11  -> 20           2.705         -0.0243 -0.0019  0.0541   0.0593    0.0002
 12  -> 13           0.205         -0.0819  0.0035 -0.0001   0.0820    0.0000
 12  -> 14           0.541         -0.0000 -0.0005  0.0002   0.0006    0.0000
 12  -> 15           0.557         -0.0013 -0.0524 -0.0009   0.0524    0.0000
 12  -> 16           1.055          0.0035  0.0844  0.0012   0.0845    0.0002
 12  -> 17           1.228          0.0005  0.0087  0.0039   0.0095    0.0000
 12  -> 18           1.246         -0.0049 -0.0019  0.1047   0.1048    0.0003
 12  -> 19           1.501         -0.0073  0.0005 -0.0128   0.0148    0.0000
 12  -> 20           1.791         -0.0018  0.0045 -0.0003   0.0049    0.0000
 13  -> 14           0.336          0.0000 -0.0010  0.0041   0.0042    0.0000
 13  -> 15           0.352         -0.3959  0.0275 -0.0074   0.3969    0.0014
 13  -> 16           0.850         -0.3656  0.0153 -0.0011   0.3660    0.0028
 13  -> 17           1.023          0.0005  0.0009  0.0566   0.0566    0.0001
 13  -> 18           1.041         -0.0015  0.0031 -0.0018   0.0039    0.0000
 13  -> 19           1.296         -0.0022 -0.0874  0.0043   0.0876    0.0002
 13  -> 20           1.586          0.0013 -0.0313  0.0914   0.0966    0.0004
 14  -> 15           0.016         -0.0011 -0.0021 -0.0004   0.0024    0.0000
 14  -> 16           0.514         -0.0002 -0.0063  0.0004   0.0063    0.0000
 14  -> 17           0.687          0.0049 -2.5566 -0.0473   2.5571    0.1101
 14  -> 18           0.705          3.0813 -0.0374 -0.0453   3.0819    0.1640
 14  -> 19           0.961         -0.0144  0.0008  0.0040   0.0150    0.0000
 14  -> 20           1.250         -0.0624 -1.4421 -0.0432   1.4441    0.0639
 15  -> 16           0.498          0.0038  0.0400  0.0006   0.0402    0.0000
 15  -> 17           0.671         -0.0016 -0.0134 -0.0003   0.0135    0.0000
 15  -> 18           0.689          0.0099  0.0005  0.0070   0.0121    0.0000
 15  -> 19           0.944          0.0938 -0.0112  0.4814   0.4906    0.0056
 15  -> 20           1.233          0.0334 -0.0057 -0.0017   0.0340    0.0000
 16  -> 17           0.173          0.0001 -0.0039  0.0007   0.0040    0.0000
 16  -> 18           0.191          0.0019 -0.0002  0.0194   0.0195    0.0000
 16  -> 19           0.446          0.0845 -0.0020 -0.0478   0.0971    0.0001
 16  -> 20           0.736          0.0253 -0.0123 -0.0006   0.0281    0.0000
 17  -> 18           0.018          2.3428 -0.0688 -0.0278   2.3439    0.0024
 17  -> 19           0.273         -0.1172  0.0080  0.0037   0.1175    0.0001
 17  -> 20           0.562         -0.1416 -0.6166 -0.0118   0.6328    0.0055
 18  -> 19           0.256          0.0065  0.0766  0.0013   0.0769    0.0000
 18  -> 20           0.545         -3.4313  0.1619  0.0549   3.4356    0.1576
 19  -> 20           0.289         -0.0609  0.0019 -0.0008   0.0610    0.0000

 SELECTING EXCITED STATE IROOT=   1 AT E=     -153.5570152475
 AS THE STATE OF INTEREST.

 ..... DONE WITH TD-DFT EXCITATION ENERGIES .....
 CPU     0: STEP CPU TIME=    80.39 TOTAL CPU TIME=         84.7 (      1.4 MIN)
 TOTAL WALL CLOCK TIME=         97.1 SECONDS, CPU UTILIZATION IS    87.25%

             ----------------------------------------------
             -------   RESULTS OF SMD CALCULATION   -------
             ----------------------------------------------
                     COMPUTED FOR THE GROUND STATE         

 INTERNAL ENERGY IN SOLVENT = <PSI| H(0) |PSI>       =     -153.6826626436 A.U.
 TOTAL ENERGY IN SOLVENT = <PSI| H(0)+V/2 |PSI>      =     -153.6869775173 A.U.
 ELECTROSTATIC INTERACTION <PSI| V/2 |PSI>           =       -0.0043148737 A.U.
 CDS INTERACTION                                     =        0.0048792555 A.U.
 TOTAL FREE ENERGY IN SOLVENT                        =     -153.6820982618 A.U.

 ELECTROSTATIC INTERACTION    =          -2.71 KCAL/MOL
 CDS INTERACTION              =           3.06 KCAL/MOL

 .... DONE PRINTING SMD SOLVENT SUMMARY ....
 CPU     0: STEP CPU TIME=     0.00 TOTAL CPU TIME=         84.7 (      1.4 MIN)
 TOTAL WALL CLOCK TIME=         97.1 SECONDS, CPU UTILIZATION IS    87.25%
             10253538  WORDS OF DYNAMIC MEMORY USED
 EXECUTION OF GAMESS TERMINATED NORMALLY Sat Oct 22 16:40:41 2022
 DDI: 263640 bytes (0.3 MB / 0 MWords) used by master data server.
Note: The following floating-point exceptions are signalling: IEEE_UNDERFLOW_FLAG IEEE_DENORMAL
Note: The following floating-point exceptions are signalling: IEEE_UNDERFLOW_FLAG IEEE_DENORMAL
Note: The following floating-point exceptions are signalling: IEEE_UNDERFLOW_FLAG IEEE_DENORMAL
Note: The following floating-point exceptions are signalling: IEEE_UNDERFLOW_FLAG IEEE_DENORMAL
Note: The following floating-point exceptions are signalling: IEEE_UNDERFLOW_FLAG IEEE_DENORMAL

 ----------------------------------------
 CPU timing information for all processes
 ========================================
 0: 82.837 + 1.898 = 84.735
 1: 82.702 + 2.02 = 84.705
 2: 82.940 + 1.804 = 84.745
 3: 82.835 + 1.740 = 84.575
 4: 82.549 + 1.739 = 84.288
 5: 82.665 + 1.589 = 84.255
 6: 0.505 + 5.486 = 5.991
 7: 0.02 + 0.02 = 0.04
 8: 0.02 + 0.02 = 0.04
 9: 0.02 + 0.02 = 0.04
 10: 0.02 + 0.02 = 0.04
 11: 0.01 + 0.02 = 0.03
 ----------------------------------------
Note: The following floating-point exceptions are signalling: IEEE_UNDERFLOW_FLAG IEEE_DENORMAL
 ddikick.x: exited gracefully.
unset echo
----- accounting info -----
Files used on the master node Samuels-MBP.attlocal.net were:
-rw-r--r-- 1 Sammy staff   22364 Oct 22 16:39 /Users/Sammy/gamess/scratch/ylide_tddft_s_states_mecn.F05
-rw-r--r-- 1 Sammy staff 2683040 Oct 22 16:40 /Users/Sammy/gamess/scratch/ylide_tddft_s_states_mecn.F10
-rw-r--r-- 1 Sammy staff 1331440 Oct 22 16:39 /Users/Sammy/gamess/scratch/ylide_tddft_s_states_mecn.F22
-rw-r--r-- 1 Sammy staff 1331440 Oct 22 16:39 /Users/Sammy/gamess/scratch/ylide_tddft_s_states_mecn.F22.001
-rw-r--r-- 1 Sammy staff 1331440 Oct 22 16:39 /Users/Sammy/gamess/scratch/ylide_tddft_s_states_mecn.F22.002
-rw-r--r-- 1 Sammy staff 1331440 Oct 22 16:39 /Users/Sammy/gamess/scratch/ylide_tddft_s_states_mecn.F22.003
-rw-r--r-- 1 Sammy staff 1331440 Oct 22 16:39 /Users/Sammy/gamess/scratch/ylide_tddft_s_states_mecn.F22.004
-rw-r--r-- 1 Sammy staff 1331440 Oct 22 16:39 /Users/Sammy/gamess/scratch/ylide_tddft_s_states_mecn.F22.005
-rw-r--r-- 1 Sammy staff       8 Oct 22 16:40 /Users/Sammy/gamess/scratch/ylide_tddft_s_states_mecn.F26
-rw-r--r-- 1 Sammy staff       0 Oct 22 16:39 /Users/Sammy/gamess/scratch/ylide_tddft_s_states_mecn.F27
ls: No match.
ls: No match.
ls: No match.
Sat Oct 22 16:40:45 CDT 2022
83.458u 7.501s 1:40.48 90.5%	0+0k 0+0io 181pf+0w
