----- GAMESS execution script 'rungms' -----
This job is running on host Samuels-MBP.attlocal.net
under operating system Darwin at Wed May 31 14:49:39 CDT 2023
Available scratch disk space (Kbyte units) at beginning of the job is
Filesystem     1K-blocks      Used Available Use% Mounted on
/dev/disk1s5s1 244912536 167777928  57634480  75% /
GAMESS temporary binary files will be written to /Users/Sammy/gamess/scratch
GAMESS supplementary output files will be written to /Users/Sammy/gamess/
Copying input file input_files/thietan-3-one/sulfur_ylide_tddft_s_states_mecn.inp to your run's scratch directory...
cp input_files/thietan-3-one/sulfur_ylide_tddft_s_states_mecn.inp /Users/Sammy/gamess/scratch/sulfur_ylide_tddft_s_states_mecn.F05
unset echo
 
Assuming a single but multicore node.
 
/Users/Sammy/gamess//ddikick.x /Users/Sammy/gamess//gamess.30Jun2020R1.x sulfur_ylide_tddft_s_states_mecn -ddi 6 6 localhost localhost localhost localhost localhost localhost -scr /Users/Sammy/gamess/scratch

 Distributed Data Interface kickoff program.
 Initiating 6 compute processes on 6 nodes to run the following command:
 /Users/Sammy/gamess//gamess.30Jun2020R1.x sulfur_ylide_tddft_s_states_mecn 

          *******************************************************
          *                                                     *
          *          GAMESS VERSION = 30 JUN 2020 (R1)          *
          *                                                     *
          *              doi.org/10.1063/5.0005188              *
          *                                                     *
          **************** 64 BIT APPLE VERSION *****************

  GAMESS HAS BEEN MADE POSSIBLE WITH IMPORTANT CONTRIBUTIONS FROM
  THE FOLLOWING INDIVIDUALS (IN ALPHABETICAL ORDER):

     IVANA ADAMOVIC, CHRISTINE AIKENS, TOMOKO AKAMA,
     YURI ALEXEEV, YURIKO AOKI, POOJA ARORA, TOSHIO ASADA,
     ANDREY ASADCHEV, KIM K. BALDRIDGE, PRADIPTA BANDYOPADHYAY,
     MARIA BARYSZ, ROB BELL, JONATHAN BENTZ, COLLEEN BERTONI,
     JERRY A. BOATZ, BRETT BODE, KURT BRORSEN, KURT R. BRORSEN,
     LAIMUTIS BYTAUTAS, CALEB CARLIN, LAURA CARRINGTON,
     GALINA CHABAN, BENOIT CHAMPAGNE, WEI CHEN, MAHITO CHIBA,
     DAN CHIPMAN, CHEOL HO CHOI, TANNER CULPITT, PAUL DAY,
     ALBERT DEFUSCO, NUWAN DESILVA, J. EMILIANO DEUSTUA,
     TIM DUDLEY, MICHEL DUPUIS, STEVEN T. ELBERT,
     DMITRI FEDOROV, ALEX FINDLATER, GRAHAM FLETCHER,
     MARK FREITAG, CHRISTIAN FRIEDL, DAVID GARMER,
     IGOR S. GERASIMOV, KURT GLAESEMANN, MARK S. GORDON,
     JEFFREY GOUR, FENG LONG GU, EMILIE B. GUIDEZ,
     ANASTASIA GUNINA, SHARON HAMMES-SCHIFFER, MASATAKE HARUTA,
     KIMIHIKO HIRAO, YASUHIRO IKABATA, TZVETELIN IORDANOV,
     STEPHAN IRLE, KAZUYA ISHIMURA, JOE IVANIC, FRANK JENSEN,
     JAN H. JENSEN, VISVALDAS KAIRYS, MUNEAKI KAMIYA,
     MICHIO KATOUDA, NAOAKI KAWAKAMI, DAN KEMP, BERNARD KIRTMAN,
     KAZUO KITAURA, MARIUSZ KLOBUKOWSKI, MASATO KOBAYASHI,
     PRAKASHAN KORAMBATH, JACEK KORCHOWIEC, SHIRO KOSEKI,
     KAROL KOWALSKI, JIMMY KROMANN, STANISLAW KUCHARSKI,
     HENRY KURTZ, SAROM SOK LEANG, HUI LI, SHUHUA LI, WEI LI,
     JESSE LUTZ, ALEKSANDR O. LYKHIN, MARCIN MAKOWSKI,
     JOANI MATO, NIKITA MATSUNAGA, BENEDETTA MENNUCCI,
     GRANT MERRILL, NORIYUKI MINEZAWA, VLADIMIR MIRONOV,
     EISAKU MIYOSHI, JOHN A. MONTGOMERY JR., HIROTOSHI MORI,
     JONATHAN MULLIN, MONIKA MUSIAL, SHIGERU NAGASE,
     TAKESHI NAGATA, HIROMI NAKAI, TAKAHITO NAKAJIMA,
     YUYA NAKAJIMA, HARUYUKI NAKANO, HIROYA NAKATA, SEAN NEDD,
     HEATHER NETZLOFF, KIET A. NGUYEN, YOSHIO NISHIMOTO,
     BOSILJKA NJEGIC, RYAN OLSON, MIKE PAK, ROBERTO PEVERATI,
     BUU PHAM, PIOTR PIECUCH, ANNA POMOGAEVA, DAVID POOLE,
     SPENCER PRUITT, OLIVIER QUINET, LUKE ROSKOP,
     KLAUS RUEDENBERG, ANDREW SAND, TOSAPORN SATTASATHUCHANA,
     NOZOMI SAWADA, MICHAEL W. SCHMIDT, PATRICK E. SCHNEIDER,
     JUNJI SEINO, PRACHI SHARMA, JUN SHEN, JIM SHOEMAKER,
     YINAN SHU, DEJUN SI, JONATHAN SKONE, LYUDMILA SLIPCHENKO,
     TONY SMITH, JIE SONG, MARK SPACKMAN, CASPER STEINMANN,
     WALT STEVENS, PEIFENG SU, SHUJUN SU, CHET SWALINA,
     TETSUYA TAKETSUGU, ZHEN TAO, NANDUN THELLAMUREGE
     SEIKEN TOKURA, JACOPO TOMASI, TSUGUKI TOUMA, TAKAO TSUNEDA,
     HIROAKI UMEDA, JORGE LUIS GALVEZ VALLEJO, YALI WANG,
     SIMON WEBB, AARON WEST, THERESA L. WINDUS, MARTA WLOCH,
     PENG XU, KIYOSHI YAGI, SUSUMU YANAGISAWA, YANG YANG,
     SOOHAENG YOO, TAKESHI YOSHIKAWA, FEDERICO ZAHARIEV,
     TOBY ZENG

  WHO ARE SUPPORTED BY THEIR INSTITUTION/UNIVERSITY/COMPANY/GROUP
  (IN ALPHABETICAL ORDER):

     EP ANALYTICS, FACULTES UNIVERSITAIRES NOTRE-DAME DE LA PAIX,
     INSTITUTE FOR MOLECULAR SCIENCE, IOWA STATE UNIVERSITY,
     JACKSON STATE UNIVERSITY, JOHANNES KEPLER UNIVERSITY LINZ,
     KYUSHU UNIVERSITY, MICHIGAN STATE UNIVERSITY,
     MIE UNIVERSITY, MOSCOW STATE UNIVERSITY,
     N. COPERNICUS UNIVERSITY, NAGOYA UNIVERSITY,
     NANJING UNIVERSITY, NAT. INST. OF ADVANCED INDUSTRIAL
     SCIENCE AND TECHNOLOGY, NATIONAL INST. OF STANDARDS AND
     TECHNOLOGY, NESMEYANOV INSTITUTE OF ORGANOELEMENT COMPOUNDS
     OF RUSSIAN ACADEMY OF SCIENCES, OSAKA PREFECTURE UNIVERSITY,
     PENNSYLVANIA STATE UNIVERSITY, TOKYO INSTITUTE OF TECHNOLOGY,
     UNIVERSITY OF AARHUS, UNIVERSITY OF ALBERTA,
     UNIVERSITY OF CALIFORNIA AT SANTA BARBARA,
     UNIVERSITY OF COPENHAGEN, UNIVERSITY OF IOWA,
     UNIVERSITY OF MEMPHIS, UNIVERSITY OF MINNESOTA,
     UNIVERSITY OF NEBRASKA, UNIVERSITY OF NEW ENGLAND,
     UNIVERSITY OF NOTRE DAME, UNIVERSITY OF PISA,
     UNIVERSITY OF SILESIA, UNIVERSITY OF TOKYO,
     UNIVERSITY OF ZURICH, WASEDA UNIVERSITY, YALE UNIVERSITY

  GAMESS SOFTWARE MANAGEMENT TEAM FOR THIS RELEASE:

     MARK S. GORDON (TEAM LEAD),
     BRETT BODE (SENIOR ADVISOR),
     GIUSEPPE BARCA,
     COLLEEN BERTONI,
     KRISTOPHER KEIPERT (ADVISOR),
     SAROM S. LEANG (DEVELOPMENT LEAD),
     BUU PHAM,
     JORGE LUIS GALVEZ VALLEJO (WEBSITE ADMINISTRATOR),
     PENG XU


 PARALLEL VERSION RUNNING ON        6 PROCESSORS IN        6 NODES.

 EXECUTION OF GAMESS BEGUN Wed May 31 14:49:39 2023

            ECHO OF THE FIRST FEW INPUT CARDS -
 INPUT CARD>!   File created by MacMolPlt 7.7                                               
 INPUT CARD> $CONTRL SCFTYP=RHF RUNTYP=ENERGY EXETYP=RUN                                    
 INPUT CARD> DFTTYP=B3LYP TDDFT=EXCITE $END                                                 
 INPUT CARD> $SYSTEM TIMLIM=525600 MEMORY=20000000 $END                                     
 INPUT CARD> $TDDFT NSTATE=20 MULT=1 IROOT=1 TAMMD=.FALSE. NRAD=75 $END                     
 INPUT CARD> $BASIS GBASIS=N311 NGAUSS=6 NDFUNC=2 NPFUNC=1 DIFFSP=.TRUE. $END               
 INPUT CARD> $GUESS GUESS=MOREAD NORB=16 $END                                               
 INPUT CARD> $SCF DIRSCF=.TRUE. $END                                                        
 INPUT CARD> $PCM SMD=.TRUE. SOLVNT=ACETNTRL $END                                           
 INPUT CARD> $DATA                                                                          
 INPUT CARD>Title                                                                           
 INPUT CARD>C1                                                                              
 INPUT CARD>C     6.0    -1.38394     0.29072     0.00858                                   
 INPUT CARD>C     6.0     1.38451     0.28936    -0.00722                                   
 INPUT CARD>S    16.0    -0.00014    -0.58149     0.00062                                   
 INPUT CARD>H     1.0    -2.29304    -0.29225    -0.00540                                   
 INPUT CARD>H     1.0     1.41085     1.37051    -0.00863                                   
 INPUT CARD>H     1.0    -1.40901     1.37193     0.01017                                   
 INPUT CARD>H     1.0     2.29321    -0.29432     0.00690                                   
 INPUT CARD> $END                                                                           
 INPUT CARD> $VEC                                                                           
 INPUT CARD> 1  1-9.99999997E-07 7.99999998E-06-9.99999997E-07 1.99999999E-06-0.00000000E+00
 INPUT CARD> 1  2-3.49999988E-04 9.99999997E-07-9.99999975E-06 9.99999997E-07 9.19000013E-04
 INPUT CARD> 1  3 2.11999999E-04-4.19999997E-05-9.99999997E-07-4.10999986E-04-7.99999980E-05
 INPUT CARD> 1  4 9.00000032E-06 0.00000000E+00 3.99999990E-05 1.60000000E-05 4.99999987E-06
 INPUT CARD> 1  5-2.99999992E-05-0.00000000E+00 0.00000000E+00-1.36999995E-04-1.86000005E-04
 INPUT CARD> 1  6-1.25000006E-04-5.50000004E-05-9.99999997E-07-9.99999997E-07-9.99999997E-07
 INPUT CARD> 1  7 7.99999998E-06 9.99999997E-07 1.99999999E-06 0.00000000E+00-3.49999988E-04
 INPUT CARD> 1  8-9.99999997E-07-9.99999975E-06-9.99999997E-07 9.19000013E-04-2.11999999E-04
 INPUT CARD> 1  9-4.19999997E-05 9.99999997E-07-4.10999986E-04 7.99999980E-05 9.00000032E-06
 INPUT CARD> 1 10-0.00000000E+00 3.99999990E-05 1.60000000E-05 4.99999987E-06 2.99999992E-05
 INPUT CARD> 1 11-0.00000000E+00-0.00000000E+00-1.36999995E-04-1.86000005E-04-1.25000006E-04
 INPUT CARD> 1 12 5.50000004E-05-9.99999997E-07 9.99999997E-07 4.11132991E-01 6.54003024E-01
 INPUT CARD> 1 13 1.65119991E-02-4.02599992E-03-3.95100005E-03-4.58699977E-03 0.00000000E+00
 INPUT CARD> 1 14 1.36000002E-04 0.00000000E+00 0.00000000E+00 7.69999970E-05 0.00000000E+00
 INPUT CARD> 1 15-0.00000000E+00-1.12000002E-04-0.00000000E+00 0.00000000E+00 6.50000002E-05
 INPUT CARD> 1 16 0.00000000E+00-0.00000000E+00-3.69999994E-04-0.00000000E+00 9.07999987E-04
 INPUT CARD> 1 17 0.00000000E+00 2.68000003E-04 0.00000000E+00 2.28299992E-03 2.28499994E-03
 INPUT CARD> 1 18 2.27999990E-03 0.00000000E+00-0.00000000E+00 0.00000000E+00 1.79200002E-03
 INPUT CARD> 1 19 1.79600006E-03 1.82899996E-03-0.00000000E+00 9.99999997E-07-0.00000000E+00
 INPUT CARD> 1 20 9.99999975E-06 9.50000031E-05-4.50000007E-05 2.40000008E-05 4.99999987E-06
 INPUT CARD> 1 21 0.00000000E+00 1.20000004E-05 5.90000018E-05-5.60000008E-05-1.89999992E-05
 INPUT CARD> 1 22-2.70000000E-05-0.00000000E+00 1.20000004E-05 5.90000018E-05-5.60000008E-05
 INPUT CARD> 1 23 1.89999992E-05-2.70000000E-05 0.00000000E+00 9.99999975E-06 9.50000031E-05
 INPUT CARD> 1 24-4.50000007E-05-2.40000008E-05 4.99999987E-06-0.00000000E+00               
 INPUT CARD> 2  1-4.29648012E-01-3.44700009E-01-4.48000006E-04 2.84999987E-04 1.49999996E-05
 INPUT CARD> 2  2-2.18940005E-02 7.93999992E-04-4.98000009E-04 9.00000032E-06-4.60640006E-02
 INPUT CARD> 2  3-1.17399998E-03 9.50000016E-04 2.09999998E-05 2.14530006E-02 4.79699997E-03
 INPUT CARD> 2  4-3.54199996E-03-2.30000005E-05 8.87900032E-03 8.75199959E-03 9.62799974E-03
 INPUT CARD> 2  5-1.13000002E-04-4.99999987E-06-7.00000010E-06 1.47040002E-02 1.43520003E-02
   20000000 WORDS OF MEMORY AVAILABLE

     BASIS OPTIONS
     -------------
     GBASIS=N311         IGAUSS=       6      POLAR=POPN311 
     NDFUNC=       2     NFFUNC=       0     DIFFSP=       T
     NPFUNC=       1      DIFFS=       F     BASNAM=        
     SPLIT2=     2.00000000     0.50000000


     RUN TITLE
     ---------
 Title                                                                           

 THE POINT GROUP OF THE MOLECULE IS C1      
 THE ORDER OF THE PRINCIPAL AXIS IS     0

 ATOM      ATOMIC                      COORDINATES (BOHR)
           CHARGE         X                   Y                   Z
 C           6.0    -2.6152673834        0.5493811392        0.0162138490
 C           6.0     2.6163445273        0.5468111118       -0.0136438216
 S          16.0    -0.0002645616       -1.0988567646        0.0011716301
 H           1.0    -4.3332172789       -0.5522724199       -0.0102045203
 H           1.0     2.6661199098        2.5898883634       -0.0163083353
 H           1.0    -2.6626428140        2.5925717743        0.0192185133
 H           1.0     4.3335385323       -0.5561841527        0.0130391093

          INTERNUCLEAR DISTANCES (ANGS.)
          ------------------------------

                1 C          2 C          3 S          4 H          5 H     

   1 C       0.0000000    2.7684954 *  1.6357616 *  1.0800520 *  2.9961799 *
   2 C       2.7684954 *  0.0000000    1.6357557 *  3.7232576    1.0814717 *
   3 S       1.6357616 *  1.6357557 *  0.0000000    2.3110791 *  2.4085851 *
   4 H       1.0800520 *  3.7232576    2.3110791 *  0.0000000    4.0599978  
   5 H       2.9961799 *  1.0814717 *  2.4085851 *  4.0599978    0.0000000  
   6 H       1.0815018 *  2.9959997 *  2.4084965 *  1.8844751 *  2.8199230 *
   7 H       3.7233999    1.0801006 *  2.3112681 *  4.5862670    1.8842662 *

                6 H          7 H     

   1 C       1.0815018 *  3.7233999  
   2 C       2.9959997 *  1.0801006 *
   3 S       2.4084965 *  2.3112681 *
   4 H       1.8844751 *  4.5862670  
   5 H       2.8199230 *  1.8842662 *
   6 H       0.0000000    4.0599055  
   7 H       4.0599055    0.0000000  

  * ... LESS THAN  3.000


     ATOMIC BASIS SET
     ----------------
 THE CONTRACTED PRIMITIVE FUNCTIONS HAVE BEEN UNNORMALIZED
 THE CONTRACTED BASIS FUNCTIONS ARE NOW NORMALIZED TO UNITY

  SHELL TYPE  PRIMITIVE        EXPONENT          CONTRACTION COEFFICIENT(S)

 C         

      1   S       1          4563.2400000    0.001966650249
      1   S       2           682.0240000    0.015230601932
      1   S       3           154.9730000    0.076126909656
      1   S       4            44.4553000    0.260801033080
      1   S       5            13.0290000    0.616462078191
      1   S       6             1.8277300    0.221006028032

      2   L       7            20.9642000    0.114660080729    0.040248692673
      2   L       8             4.8033100    0.919999647749    0.237593956746
      2   L       9             1.4593300   -0.003030682134    0.815853851473

      3   L      10             0.4834560    1.000000000000    1.000000000000

      4   L      11             0.1455850    1.000000000000    1.000000000000

      5   L      12             0.0438000    1.000000000000    1.000000000000

      6   D      13             1.2520000    1.000000000000

      7   D      14             0.3130000    1.000000000000

 C         

      8   S      15          4563.2400000    0.001966650249
      8   S      16           682.0240000    0.015230601932
      8   S      17           154.9730000    0.076126909656
      8   S      18            44.4553000    0.260801033080
      8   S      19            13.0290000    0.616462078191
      8   S      20             1.8277300    0.221006028032

      9   L      21            20.9642000    0.114660080729    0.040248692673
      9   L      22             4.8033100    0.919999647749    0.237593956746
      9   L      23             1.4593300   -0.003030682134    0.815853851473

     10   L      24             0.4834560    1.000000000000    1.000000000000

     11   L      25             0.1455850    1.000000000000    1.000000000000

     12   L      26             0.0438000    1.000000000000    1.000000000000

     13   D      27             1.2520000    1.000000000000

     14   D      28             0.3130000    1.000000000000

 S         

     15   S      29         93413.4000000    0.000742000413
     15   S      30         13961.7000000    0.005790003223
     15   S      31          3169.9000000    0.029945016668
     15   S      32           902.4600000    0.118971066220
     15   S      33           297.1600000    0.368273204984
     15   S      34           108.7020000    0.577507321445

     16   S      35           108.7020000    0.142942886933
     16   S      36            43.1550000    0.624605505939
     16   S      37            18.1080000    0.283437775802

     17   S      38             5.5705000    1.000000000000

     18   S      39             2.1427000    1.000000000000

     19   S      40             0.4340000    1.000000000000

     20   S      41             0.1570000    1.000000000000

     21   P      42           495.0400000    0.002720000255
     21   P      43           117.2200000    0.021090001977
     21   P      44            37.5070000    0.092369008661
     21   P      45            13.9100000    0.246781023139
     21   P      46             5.5045000    0.743840069744

     22   P      47             5.5045000   -1.608730016820
     22   P      48             2.2433000    1.223263377088

     23   P      49             0.7762000    1.000000000000

     24   P      50             0.2919000    1.000000000000

     25   P      51             0.1029000    1.000000000000

     26   L      52             0.0405000    1.000000000000    1.000000000000

     27   D      53             1.3000000    1.000000000000

     28   D      54             0.3250000    1.000000000000

 H         

     29   S      55            33.8650000    0.025493814541
     29   S      56             5.0947900    0.190373108582
     29   S      57             1.1587900    0.852161486043

     30   S      58             0.3258400    1.000000000000

     31   S      59             0.1027410    1.000000000000

     32   P      60             0.7500000    1.000000000000

 H         

     33   S      61            33.8650000    0.025493814541
     33   S      62             5.0947900    0.190373108582
     33   S      63             1.1587900    0.852161486043

     34   S      64             0.3258400    1.000000000000

     35   S      65             0.1027410    1.000000000000

     36   P      66             0.7500000    1.000000000000

 H         

     37   S      67            33.8650000    0.025493814541
     37   S      68             5.0947900    0.190373108582
     37   S      69             1.1587900    0.852161486043

     38   S      70             0.3258400    1.000000000000

     39   S      71             0.1027410    1.000000000000

     40   P      72             0.7500000    1.000000000000

 H         

     41   S      73            33.8650000    0.025493814541
     41   S      74             5.0947900    0.190373108582
     41   S      75             1.1587900    0.852161486043

     42   S      76             0.3258400    1.000000000000

     43   S      77             0.1027410    1.000000000000

     44   P      78             0.7500000    1.000000000000

 TOTAL NUMBER OF BASIS SET SHELLS             =   44
 NUMBER OF CARTESIAN GAUSSIAN BASIS FUNCTIONS =  119
 NUMBER OF ELECTRONS                          =   32
 CHARGE OF MOLECULE                           =    0
 SPIN MULTIPLICITY                            =    1
 NUMBER OF OCCUPIED ORBITALS (ALPHA)          =   16
 NUMBER OF OCCUPIED ORBITALS (BETA )          =   16
 TOTAL NUMBER OF ATOMS                        =    7
 THE NUCLEAR REPULSION ENERGY IS      100.0531080661

 SELECTED MURRAY-HANDY-LAMING RADIAL GRID

 LEGACY BECKE'S FUZZY CELL METHOD

 SELECTED ORIGINAL BECKE'S PARTITION FUNCTION

     LEBEDEV GRID-BASED DFT OPTIONS
     ------------------------------
     DFTTYP=B3LYP   
     NRAD  =      96     NLEB  =     302
     NRAD0 =      24     NLEB0 =     110
     SWOFF =    5.00E-03 (PURE SCF -> DFT)
     SWITCH=    3.00E-04 (COARSE -> TIGHT GRID)
     THRESH=    0.00E+00 GTHRE=    1.00E+00

 GRIMME'S EMPIRICAL DISPERSION CORRECTION= F

     $CONTRL OPTIONS
     ---------------
 SCFTYP=RHF          RUNTYP=ENERGY       EXETYP=RUN     
 MPLEVL=       0     CITYP =NONE         CCTYP =NONE         VBTYP =NONE    
 DFTTYP=B3LYP        TDDFT =EXCITE  
 MULT  =       1     ICHARG=       0     NZVAR =       0     COORD =UNIQUE  
 PP    =NONE         RELWFN=NONE         LOCAL =NONE         NUMGRD=       F
 ISPHER=      -1     NOSYM =       0     MAXIT =      30     UNITS =ANGS    
 PLTORB=       F     MOLPLT=       F     AIMPAC=       F     FRIEND=        
 NPRINT=       7     IREST =       0     GEOM  =INPUT   
 NORMF =       0     NORMP =       0     ITOL  =      20     ICUT  =       9
 INTTYP=BEST         GRDTYP=BEST         QMTTOL= 1.0E-06

     $SYSTEM OPTIONS
     ---------------
  REPLICATED MEMORY=    20000000 WORDS (ON EVERY NODE).
 DISTRIBUTED MEMDDI=           0 MILLION WORDS IN AGGREGATE,
 MEMDDI DISTRIBUTED OVER   6 PROCESSORS IS           0 WORDS/PROCESSOR.
 TOTAL MEMORY REQUESTED ON EACH PROCESSOR=    20000000 WORDS.
 TIMLIM=      525600.00 MINUTES, OR     365.0 DAYS.
 PARALL= T  BALTYP=  DLB     KDIAG=    0  COREFL= F
 MXSEQ2=     300 MXSEQ3=     150  mem10=         0  mem22=         0

     -----------------------------------
     INPUT FOR PCM SOLVATION CALCULATION 
     -----------------------------------
     IEF   =     -10
     ICOMP =       0     IFIELD=       0     ICAV  =       0
     IDISP =       0     IREP  =       0     IDP   =       0

     SOLVNT=ACETNTRL     EPS   = 35.6880     EPSINF=  1.8069
     VMOL  =  0.0000     TCE   =  0.00000000 STEN  =  0.0000
     DSTEN =  0.0000     CMF   =  0.0000     RSOLV =  0.0000

     NESFP =       0
     OMEGA = 40.0000     RET   =100.0000     FRO   =  0.7000

     TABS  =298.0000     IPRINT=       0

     --------------------------------
     INPUT FOR ITERATIVE C-PCM METHOD 
     --------------------------------
     IPCMIT  =         1     MXDIIS  =        50
     MXITR1  =        50     MXITR2  =        50
     THRES   = 0.100E-09     IMUL    =         3
     RCUT(1) =   15.0000     RCUT(2) =   30.0000

     IDIRCT  =         1
     IMGABI  =         0     RABI    =    4.0000
     IMGASC  =         0     RASC    =   20.0000
     THRSLS  = 0.500E-03     DENSLS  =    0.0100
     IEFPOL  =         1     REFPOL  =    0.0000

     ------------------------------------
     INPUT FOR NONAQUEOUS SMD CALCULATION 
     ------------------------------------
     SOLVNT= acetonitrile                    EPS   = 35.6880
     SOLA  =  0.0700     SOLB  =  0.3200     SOLC  =  0.0000
     SOLG  = 41.2500     SOLH  =  0.0000     SOLN  =  1.3442

     INPUT FOR ISOTROPIC DIELECTRICS
     -------------------------------
     EPS=    35.69

     INPUT FOR CAVITY DEFINITION 
     ---------------------------
   ATOM               COORDINATES                RADIUS       EPS
      1     -1.3839      0.2907      0.0086      1.8500     35.6880
      2      1.3845      0.2894     -0.0072      1.8500     35.6880
      3     -0.0001     -0.5815      0.0006      2.4900     35.6880
      4     -2.2930     -0.2923     -0.0054      1.2000     35.6880
      5      1.4109      1.3705     -0.0086      1.2000     35.6880
      6     -1.4090      1.3719      0.0102      1.2000     35.6880
      7      2.2932     -0.2943      0.0069      1.2000     35.6880

     ----------------------------
     INPUT FOR TESSERA DEFINITION
     ----------------------------
     NTSALL  =        60     MTHALL  =         4
     MTHAUT  =         0     AUTFRE  =    2.0000
     NTSFRZ  =        60     KEEPSM  =         0
     AREAKP  =   10.0000     BONDRY  =    1.0000
     AREATL  =    0.0100

     SPHERE     INITS       METHOD
          1        60       FIXPVA
          2        60       FIXPVA
          3        60       FIXPVA
          4        60       FIXPVA
          5        60       FIXPVA
          6        60       FIXPVA
          7        60       FIXPVA

     ------------------------------
      FIXPVA TESSELLATION FOR PCM
         PEIFENG SU AND HUI LI
     UNIVERSITY OF NEBRASKA-LINCOLN
     ------------------------------


 PCM DIMENSIONS: MXSP=  2000, MXTS=       420, MEMORY=         31243

 Using Gaussians for PCM contribution to MEP, params: 0.10000E+01 0.10000E-07

          ----------------
          PROPERTIES INPUT
          ----------------

     MOMENTS            FIELD           POTENTIAL          DENSITY
 IEMOM =       1   IEFLD =       0   IEPOT =       0   IEDEN =       0
 WHERE =COMASS     WHERE =NUCLEI     WHERE =NUCLEI     WHERE =NUCLEI  
 OUTPUT=BOTH       OUTPUT=BOTH       OUTPUT=BOTH       OUTPUT=BOTH    
 IEMINT=       0   IEFINT=       0                     IEDINT=       0
                                                       MORB  =       0
          EXTRAPOLATION IN EFFECT
          DIIS IN EFFECT
 ORBITAL PRINTING OPTION: NPREO=     1   119     2     1

     -------------------------------
     INTEGRAL TRANSFORMATION OPTIONS
     -------------------------------
     NWORD  =            0
     CUTOFF = 1.0E-09     MPTRAN =       0
     DIRTRF =       T     AOINTS =DUP     

          ----------------------
          INTEGRAL INPUT OPTIONS
          ----------------------
 NOPK  =       1 NORDER=       0 SCHWRZ=       T

          ----------------------
          TDDFT INPUT PARAMETERS
          ----------------------
 NSTATE=      20 IROOT =       1 MULT  =       1
 MAXVEC=      50 NTRIAL=       5 CNVTOL=  1.00E-07
 TDPRP =       F TRNSD =       F TAMMD =       F
 TPA   =       F ALPHA =       F BETA  =       F
 PFREQ =    0.00    0.00
   NRAD=      75   NLEB=     110

     ------------------------------------------
     THE POINT GROUP IS C1 , NAXIS= 1, ORDER= 1
     ------------------------------------------

     DIMENSIONS OF THE SYMMETRY SUBSPACES ARE
 A   =  119

 ..... DONE SETTING UP THE RUN .....
 CPU     0: STEP CPU TIME=     0.02 TOTAL CPU TIME=          0.0 (      0.0 MIN)
 TOTAL WALL CLOCK TIME=          0.0 SECONDS, CPU UTILIZATION IS   100.00%

          ********************
          1 ELECTRON INTEGRALS
          ********************
 ...... END OF ONE-ELECTRON INTEGRALS ......
 CPU     0: STEP CPU TIME=     0.00 TOTAL CPU TIME=          0.0 (      0.0 MIN)
 TOTAL WALL CLOCK TIME=          0.0 SECONDS, CPU UTILIZATION IS   100.00%

          -------------
          GUESS OPTIONS
          -------------
          GUESS =MOREAD            NORB  =      16          NORDER=       0
          MIX   =       F          PRTMO =       F          PUNMO =       F
          TOLZ  = 1.0E-08          TOLE  = 1.0E-05
          SYMDEN=       F          PURIFY=       F

 INITIAL GUESS ORBITALS GENERATED BY MOREAD   ROUTINE.

 SYMMETRIES FOR INITIAL GUESS ORBITALS FOLLOW.   BOTH SET(S).
    16 ORBITALS ARE OCCUPIED (    7 CORE ORBITALS).
     1=A        2=A        3=A        4=A        5=A        6=A        7=A   
     8=A        9=A       10=A       11=A       12=A       13=A       14=A   
    15=A       16=A       17=A       18=A       19=A       20=A       21=A   
    22=A       23=A       24=A       25=A       26=A       27=A       28=A   
    29=A       30=A       31=A       32=A       33=A       34=A       35=A   
    36=A       37=A       38=A       39=A       40=A       41=A       42=A   
    43=A       44=A       45=A       46=A       47=A       48=A       49=A   
    50=A       51=A       52=A       53=A       54=A       55=A       56=A   
    57=A       58=A       59=A       60=A       61=A       62=A       63=A   
    64=A       65=A       66=A       67=A       68=A       69=A       70=A   
    71=A       72=A       73=A       74=A       75=A       76=A       77=A   
    78=A       79=A       80=A       81=A       82=A       83=A       84=A   
    85=A       86=A       87=A       88=A       89=A       90=A       91=A   
    92=A       93=A       94=A       95=A       96=A       97=A       98=A   
    99=A      100=A      101=A      102=A      103=A      104=A      105=A   
   106=A      107=A      108=A      109=A      110=A      111=A      112=A   
   113=A      114=A      115=A      116=A      117=A      118=A      119=A   
 ...... END OF INITIAL ORBITAL SELECTION ......
 CPU     0: STEP CPU TIME=     0.02 TOTAL CPU TIME=          0.0 (      0.0 MIN)
 TOTAL WALL CLOCK TIME=          0.0 SECONDS, CPU UTILIZATION IS   125.00%

                    ----------------------
                    AO INTEGRAL TECHNOLOGY
                    ----------------------
     S,P,L SHELL ROTATED AXIS INTEGRALS, REPROGRAMMED BY
        KAZUYA ISHIMURA (IMS) AND JOSE SIERRA (SYNSTAR).
     S,P,D,L SHELL ROTATED AXIS INTEGRALS PROGRAMMED BY
        KAZUYA ISHIMURA (INSTITUTE FOR MOLECULAR SCIENCE).
     S,P,D,F,G SHELL TO TOTAL QUARTET ANGULAR MOMENTUM SUM 5,
        ERIC PROGRAM BY GRAHAM FLETCHER (ELORET AND NASA ADVANCED
        SUPERCOMPUTING DIVISION, AMES RESEARCH CENTER).
     S,P,D,F,G,L SHELL GENERAL RYS QUADRATURE PROGRAMMED BY
        MICHEL DUPUIS (PACIFIC NORTHWEST NATIONAL LABORATORY).

          --------------------
          2 ELECTRON INTEGRALS
          --------------------

 DIRECT SCF METHOD SKIPS INTEGRAL STORAGE ON DISK.
 DIRECT TRANSFORMATION SKIPS AO INTEGRAL STORAGE ON DISK.
  ...... END OF TWO-ELECTRON INTEGRALS .....
 CPU     0: STEP CPU TIME=     0.01 TOTAL CPU TIME=          0.1 (      0.0 MIN)
 TOTAL WALL CLOCK TIME=          0.1 SECONDS, CPU UTILIZATION IS   120.00%

          -------------------------------------
          ---- POLARISABLE CONTINUUM MODEL ----
          ----      UNIVERSITY OF PISA     ----
          -------------------------------------

     ----------------------------
     INPUT FOR TESSERA DEFINITION
     ----------------------------
     NTSALL  =        60     MTHALL  =         4
     MTHAUT  =         0     AUTFRE  =    2.0000
     NTSFRZ  =        60     KEEPSM  =         0
     AREAKP  =   10.0000     BONDRY  =    1.0000
     AREATL  =    0.0100

     SPHERE     INITS       METHOD
          1        60       FIXPVA
          2        60       FIXPVA
          3        60       FIXPVA
          4        60       FIXPVA
          5        60       FIXPVA
          6        60       FIXPVA
          7        60       FIXPVA

     ------------------------------
      FIXPVA TESSELLATION FOR PCM
         PEIFENG SU AND HUI LI
     UNIVERSITY OF NEBRASKA-LINCOLN
     ------------------------------


     INPUT FOR CAVITY DEFINITION 
     ---------------------------
   ATOM               COORDINATES                RADIUS       EPS
      1     -1.3839      0.2907      0.0086      1.8500     35.6880
      2      1.3845      0.2894     -0.0072      1.8500     35.6880
      3     -0.0001     -0.5815      0.0006      2.4900     35.6880
      4     -2.2930     -0.2923     -0.0054      1.2000     35.6880
      5      1.4109      1.3705     -0.0086      1.2000     35.6880
      6     -1.4090      1.3719      0.0102      1.2000     35.6880
      7      2.2932     -0.2943      0.0069      1.2000     35.6880

 MEMORY USED TO GENERATE CAVITY=    211102


 TOTAL NUMBER OF SPHERES=     7
 SPHERE           CENTER  (X,Y,Z) (A)               RADIUS (A)      AREA(A*A)
     1  -1.383940000   0.290720000   0.008580000   1.850000000   9.627679212
     2   1.384510000   0.289360000  -0.007220000   1.850000000   9.633385016
     3  -0.000140000  -0.581490000   0.000620000   2.490000000  45.524384168
     4  -2.293040000  -0.292250000  -0.005400000   1.200000000   4.387878052
     5   1.410850000   1.370510000  -0.008630000   1.200000000   3.947864364
     6  -1.409010000   1.371930000   0.010170000   1.200000000   3.949255036
     7   2.293210000  -0.294320000   0.006900000   1.200000000   4.387034051

 TOTAL NUMBER OF TESSERAE=     150
 SURFACE AREA=    81.45747990(A**2)    CAVITY VOLUME=     71.51154845 (A**3)
 CPU     0: STEP CPU TIME=     0.00 TOTAL CPU TIME=          0.1 (      0.0 MIN)
 TOTAL WALL CLOCK TIME=          0.1 SECONDS, CPU UTILIZATION IS   100.00%

          THE SOLUTE IS ENCLOSED IN ONE CAVITY
 DONE CHECKING SEPARATION.
 CPU     0: STEP CPU TIME=     0.00 TOTAL CPU TIME=          0.1 (      0.0 MIN)
 TOTAL WALL CLOCK TIME=          0.1 SECONDS, CPU UTILIZATION IS   100.00%

 ..... DONE GENERATING CAVITY .....
 CPU     0: STEP CPU TIME=     0.00 TOTAL CPU TIME=          0.1 (      0.0 MIN)
 TOTAL WALL CLOCK TIME=          0.1 SECONDS, CPU UTILIZATION IS   100.00%
 NUCLEI-NUCLEAR CHARGE POLARIZATION ADJUSTMENT TO VNN=        0.0000000000

          --------------------------
             R-B3LYP SCF CALCULATION
          --------------------------

     NUCLEAR ENERGY =       100.0531080661
     MAXIT =   30     NPUNCH=    2
     EXTRAP=T  DAMP=F  SHIFT=F  RSTRCT=F  DIIS=T  DEM=F  SOSCF=F
         DENSITY MATRIX CONVERGENCE THRESHOLD=  2.00E-06
     COARSE -> FINE DFT GRID SWITCH THRESHOLD=  3.00E-04 (SWITCH IN $DFT)
                   HF -> DFT SWITCH THRESHOLD=  0.00E+00 (SWOFF IN $DFT)
     MEMORY REQUIRED FOR RHF ITERS=    482057 WORDS.

 DIRECT SCF CALCULATION, SCHWRZ=T   FDIFF=F,  DIRTHR=  0.00E+00 NITDIR=10
 SCHWARZ INEQUALITY OVERHEAD:      7139 INTEGRALS, T=        0.00

     EXCHANGE FUNCTIONAL   =B88&HFX   
     CORRELATION FUNCTIONAL=LYP88&VWN5
     DFT THRESHOLD         =.493E-08
     GRID CHANGE THRESHOLD =.300E-03
 FOR AN EULER-MACLAURIN QUADRATURE USING  96 RADIAL POINTS:
 SMALLEST GAUSSIAN PRIMITIVE EXPONENT=        0.0405000000 OF TYPE -P-
 ON ATOM NUMBER   3 HAS RADIAL NORMALIZATION=  1.000000
  LARGEST GAUSSIAN PRIMITIVE EXPONENT=    93413.4000000000 OF TYPE -S-
 ON ATOM NUMBER   3 HAS RADIAL NORMALIZATION=  0.999999

                                                                                   NONZERO     BLOCKS
 ITER EX DEM     TOTAL ENERGY        E CHANGE  DENSITY CHANGE    DIIS ERROR      INTEGRALS    SKIPPED
          * * *   INITIATING DIIS PROCEDURE   * * *
   1  0  0     -476.6620579063  -476.6620579063   0.000007828   0.000072361       22225670      55078
   2  1  0     -476.6620579076    -0.0000000013   0.000004696   0.000002822       22225670      55078
   3  2  0     -476.6620579075     0.0000000001   0.000003367   0.000006683       22225670      55078
   4  3  0     -476.6620579077    -0.0000000001   0.000000354   0.000000229       22225670      55078

          -----------------
          DENSITY CONVERGED
          -----------------
     TIME TO FORM FOCK OPERATORS=       3.5 SECONDS (       0.9 SEC/ITER)
     FOCK TIME ON FIRST ITERATION=       0.9, LAST ITERATION=       0.8
     TIME TO SOLVE SCF EQUATIONS=       0.0 SECONDS (       0.0 SEC/ITER)

 FINAL R-B3LYP ENERGY IS     -476.6620579077 AFTER   4 ITERATIONS
 DFT EXCHANGE + CORRELATION ENERGY =       -30.5295461808
 TOTAL ELECTRON NUMBER             =        32.0000177832
  
   PCM ASC=     -0.0279931465
   GCAVP  =      0.0000000000
   GDISP  =      0.0000000000
   GREP   =      0.0000000000

          ------------
          EIGENVECTORS
          ------------

                      1          2          3          4          5
                  -88.9460   -10.1808   -10.1808    -7.9991    -5.9626
                     A          A          A          A          A   
    1  C  1  S   -0.000001   0.424307   0.373215  -0.000081   0.000120
    2  C  1  S    0.000008   0.340411   0.299641  -0.000136   0.000333
    3  C  1  X   -0.000001   0.000440   0.000566   0.000021  -0.000150
    4  C  1  Y    0.000002  -0.000281  -0.000279  -0.000021   0.000110
    5  C  1  Z   -0.000000  -0.000015  -0.000013   0.000000   0.000001
    6  C  1  S   -0.000350   0.021596   0.020841   0.002042  -0.000438
    7  C  1  X    0.000001  -0.000771  -0.001661   0.000266   0.000304
    8  C  1  Y   -0.000010   0.000487   0.000721  -0.000127  -0.000203
    9  C  1  Z    0.000001  -0.000009  -0.000008  -0.000004  -0.000004
   10  C  1  S    0.000919   0.045609   0.031901  -0.005262  -0.000194
   11  C  1  X    0.000212   0.001179  -0.000321  -0.001155   0.000813
   12  C  1  Y   -0.000042  -0.000948  -0.000120   0.000118  -0.000635
   13  C  1  Z   -0.000001  -0.000021  -0.000013   0.000004  -0.000005
   14  C  1  S   -0.000411  -0.021389  -0.004609   0.002405  -0.000071
   15  C  1  X   -0.000080  -0.004784  -0.000960   0.000451   0.000026
   16  C  1  Y    0.000009   0.003526   0.001107  -0.000049   0.000035
   17  C  1  Z    0.000000   0.000023  -0.000005  -0.000001   0.000001
   18  C  1 XX    0.000040  -0.008770  -0.007561  -0.000130   0.000364
   19  C  1 YY    0.000016  -0.008647  -0.007365  -0.000075   0.000295
   20  C  1 ZZ    0.000005  -0.009512  -0.008138  -0.000044   0.000220
   21  C  1 XY   -0.000030   0.000111   0.000115   0.000075  -0.000074
   22  C  1 XZ   -0.000000   0.000005   0.000006   0.000001  -0.000001
   23  C  1 YZ    0.000000   0.000006   0.000006  -0.000000   0.000001
   24  C  1 XX   -0.000137  -0.014533  -0.011950   0.000854   0.000833
   25  C  1 YY   -0.000186  -0.014204  -0.010341   0.001044   0.000472
   26  C  1 ZZ   -0.000125  -0.015258  -0.011977   0.000729   0.000386
   27  C  1 XY   -0.000055   0.000307   0.000846   0.000163  -0.000297
   28  C  1 XZ   -0.000001   0.000010   0.000015   0.000003  -0.000003
   29  C  1 YZ   -0.000001   0.000010   0.000014   0.000003   0.000003
   30  C  2  S   -0.000001  -0.373255   0.424272  -0.000081  -0.000120
   31  C  2  S    0.000008  -0.299425   0.340601  -0.000136  -0.000333
   32  C  2  X    0.000001   0.000365  -0.000618  -0.000021  -0.000150
   33  C  2  Y    0.000002   0.000243  -0.000312  -0.000021  -0.000110
   34  C  2  Z    0.000000  -0.000013   0.000015  -0.000000   0.000001
   35  C  2  S   -0.000350  -0.018765   0.023419   0.002042   0.000439
   36  C  2  X   -0.000001  -0.000552   0.001748  -0.000266   0.000304
   37  C  2  Y   -0.000010  -0.000392   0.000776  -0.000126   0.000203
   38  C  2  Z   -0.000001  -0.000008   0.000010   0.000004  -0.000004
   39  C  2  S    0.000919  -0.041170   0.037472  -0.005264   0.000194
   40  C  2  X   -0.000212   0.001213   0.000167   0.001155   0.000814
   41  C  2  Y   -0.000042   0.000925  -0.000241   0.000117   0.000634
   42  C  2  Z    0.000001  -0.000019   0.000016  -0.000004  -0.000005
   43  C  2  S   -0.000411   0.020661  -0.007304   0.002407   0.000072
   44  C  2  X    0.000080  -0.004634   0.001566  -0.000451   0.000026
   45  C  2  Y    0.000009  -0.003355   0.001548  -0.000048  -0.000035
   46  C  2  Z   -0.000000   0.000023   0.000002   0.000001   0.000001
   47  C  2 XX    0.000040   0.007736  -0.008617  -0.000130  -0.000364
   48  C  2 YY    0.000016   0.007638  -0.008407  -0.000075  -0.000295
   49  C  2 ZZ    0.000005   0.008397  -0.009284  -0.000044  -0.000220
   50  C  2 XY    0.000030   0.000095  -0.000128  -0.000075  -0.000074
   51  C  2 XZ   -0.000000  -0.000004   0.000007   0.000001   0.000001
   52  C  2 YZ   -0.000000   0.000006  -0.000007   0.000000   0.000001
   53  C  2 XX   -0.000137   0.012891  -0.013710   0.000854  -0.000833
   54  C  2 YY   -0.000186   0.012768  -0.012071   0.001044  -0.000471
   55  C  2 ZZ   -0.000125   0.013606  -0.013829   0.000729  -0.000386
   56  C  2 XY    0.000055   0.000196  -0.000876  -0.000162  -0.000297
   57  C  2 XZ   -0.000001  -0.000008   0.000016   0.000003   0.000003
   58  C  2 YZ    0.000001   0.000009  -0.000015  -0.000003   0.000003
   59  S  3  S    0.411133  -0.000000  -0.000004  -0.119746   0.000000
   60  S  3  S    0.654003  -0.000001  -0.000017  -0.320723   0.000000
   61  S  3  S    0.016512   0.000004   0.000059   0.519947  -0.000001
   62  S  3  S   -0.004026   0.000041   0.000640   0.590781  -0.000001
   63  S  3  S   -0.003951   0.000176   0.002764   0.023570   0.000000
   64  S  3  S   -0.004587  -0.000665  -0.010453   0.025936   0.000000
   65  S  3  X    0.000000  -0.000032   0.000002   0.000004   1.147993
   66  S  3  Y    0.000136   0.000007   0.000103   0.007896  -0.000485
   67  S  3  Z    0.000000   0.000000  -0.000000  -0.000000  -0.017352
   68  S  3  X    0.000000  -0.000038   0.000003   0.000001   0.263266
   69  S  3  Y    0.000077   0.000006   0.000087   0.001699  -0.000111
   70  S  3  Z    0.000000   0.000000  -0.000000  -0.000000  -0.003980
   71  S  3  X   -0.000000  -0.000757   0.000048   0.000001   0.047595
   72  S  3  Y   -0.000112   0.000002   0.000034   0.001136  -0.000020
   73  S  3  Z   -0.000000   0.000004  -0.000000   0.000000  -0.000719
   74  S  3  X    0.000000   0.000962  -0.000060  -0.000000  -0.000652
   75  S  3  Y    0.000065   0.000080   0.001239  -0.000620   0.000000
   76  S  3  Z    0.000000  -0.000005   0.000000  -0.000000   0.000033
   77  S  3  X   -0.000000   0.003970  -0.000256   0.000001   0.001294
   78  S  3  Y   -0.000370  -0.000075  -0.001143   0.002219  -0.000001
   79  S  3  Z   -0.000000  -0.000021   0.000001   0.000000  -0.000014
   80  S  3  S    0.000908   0.000481   0.007981  -0.005282  -0.000001
   81  S  3  X    0.000000  -0.010804   0.000693  -0.000001  -0.000177
   82  S  3  Y    0.000268   0.000028   0.000459  -0.001592  -0.000000
   83  S  3  Z    0.000000   0.000060  -0.000004  -0.000000   0.000003
   84  S  3 XX    0.002283   0.000036   0.000563   0.006501   0.000001
   85  S  3 YY    0.002285   0.000034   0.000527   0.005876  -0.000001
   86  S  3 ZZ    0.002280   0.000038   0.000588   0.006114  -0.000000
   87  S  3 XY    0.000000   0.000024  -0.000002  -0.000000   0.000894
   88  S  3 XZ   -0.000000   0.000000   0.000001  -0.000003  -0.000000
   89  S  3 YZ    0.000000  -0.000000  -0.000000  -0.000000  -0.000013
   90  S  3 XX    0.001792   0.000117   0.001806  -0.010176   0.000001
   91  S  3 YY    0.001796   0.000166   0.002615  -0.009888  -0.000001
   92  S  3 ZZ    0.001829   0.000159   0.002499  -0.010193  -0.000000
   93  S  3 XY    0.000000   0.000957  -0.000060   0.000000   0.001044
   94  S  3 XZ    0.000001  -0.000000  -0.000003  -0.000001   0.000000
   95  S  3 YZ   -0.000000  -0.000008   0.000001   0.000000  -0.000004
   96  H  4  S    0.000010  -0.000128  -0.000140  -0.000034   0.000077
   97  H  4  S    0.000095  -0.001139  -0.001670  -0.000464  -0.000257
   98  H  4  S   -0.000045  -0.001741  -0.001386   0.000223   0.000353
   99  H  4  X    0.000024  -0.001105  -0.001251  -0.000109  -0.000073
  100  H  4  Y    0.000005  -0.000631  -0.000551  -0.000009   0.000004
  101  H  4  Z    0.000000  -0.000015  -0.000017  -0.000002   0.000000
  102  H  5  S    0.000012   0.000165  -0.000189  -0.000049  -0.000053
  103  H  5  S    0.000059   0.000737  -0.001737  -0.000231   0.000063
  104  H  5  S   -0.000056   0.001887  -0.001800   0.000348  -0.000343
  105  H  5  X   -0.000019  -0.000064   0.000162   0.000083  -0.000005
  106  H  5  Y   -0.000027  -0.001081   0.001511   0.000109  -0.000003
  107  H  5  Z   -0.000000   0.000001   0.000000   0.000000  -0.000000
  108  H  6  S    0.000012  -0.000188  -0.000166  -0.000049   0.000053
  109  H  6  S    0.000059  -0.000951  -0.001631  -0.000231  -0.000063
  110  H  6  S   -0.000056  -0.002105  -0.001542   0.000348   0.000343
  111  H  6  X    0.000019  -0.000083  -0.000151  -0.000082  -0.000006
  112  H  6  Y   -0.000027   0.001264   0.001361   0.000110   0.000003
  113  H  6  Z    0.000000   0.000001   0.000000  -0.000000  -0.000000
  114  H  7  S    0.000010   0.000109  -0.000155  -0.000034  -0.000077
  115  H  7  S    0.000095   0.000917  -0.001801  -0.000464   0.000256
  116  H  7  S   -0.000045   0.001547  -0.001598   0.000223  -0.000354
  117  H  7  X   -0.000024  -0.000936   0.001381   0.000109  -0.000073
  118  H  7  Y    0.000005   0.000557  -0.000628  -0.000009  -0.000004
  119  H  7  Z   -0.000000  -0.000013   0.000019   0.000002   0.000000

                      6          7          8          9         10
                   -5.9609    -5.9583    -0.8477    -0.6950    -0.5696
                     A          A          A          A          A   
    1  C  1  S    0.000001  -0.000065  -0.051454  -0.078321   0.056418
    2  C  1  S    0.000003  -0.000263  -0.076824  -0.117627   0.085246
    3  C  1  X   -0.000001   0.000045   0.035690   0.006761   0.059836
    4  C  1  Y    0.000001  -0.000006  -0.020718  -0.016818  -0.049968
    5  C  1  Z    0.000024  -0.000001  -0.000379  -0.000554   0.000325
    6  C  1  S   -0.000001   0.000309   0.199860   0.318689  -0.238826
    7  C  1  X    0.000003   0.000113   0.061956   0.018788   0.079334
    8  C  1  Y   -0.000003   0.000025  -0.036259  -0.028059  -0.065192
    9  C  1  Z    0.000081   0.000001  -0.000539  -0.000776   0.000481
   10  C  1  S   -0.000005   0.000952   0.089111   0.153560  -0.150683
   11  C  1  X    0.000010   0.000112   0.022862  -0.002012   0.038728
   12  C  1  Y   -0.000006   0.000357  -0.009716  -0.004429  -0.030365
   13  C  1  Z    0.000056   0.000003  -0.000234  -0.000341   0.000333
   14  C  1  S   -0.000007   0.000590   0.027705   0.035450  -0.052461
   15  C  1  X    0.000001   0.000117   0.002761   0.002564  -0.007731
   16  C  1  Y    0.000003  -0.000014  -0.001776  -0.004976   0.001444
   17  C  1  Z   -0.000004  -0.000002  -0.000072  -0.000058   0.000080
   18  C  1 XX    0.000004  -0.000281   0.008833   0.008615  -0.001610
   19  C  1 YY    0.000003  -0.000261   0.003150   0.007909  -0.007979
   20  C  1 ZZ    0.000002  -0.000213  -0.003319  -0.002327  -0.000014
   21  C  1 XY   -0.000001   0.000054  -0.005915  -0.003372  -0.006365
   22  C  1 XZ    0.000003   0.000000  -0.000052   0.000018  -0.000113
   23  C  1 YZ   -0.000003  -0.000000   0.000069   0.000100  -0.000047
   24  C  1 XX    0.000011  -0.000398   0.014589   0.010686  -0.010627
   25  C  1 YY    0.000007  -0.000606  -0.001207   0.015741  -0.011067
   26  C  1 ZZ    0.000004  -0.000329   0.001514   0.006829  -0.007523
   27  C  1 XY   -0.000003  -0.000070  -0.012295  -0.007121  -0.007266
   28  C  1 XZ    0.000071  -0.000003  -0.000205  -0.000110  -0.000086
   29  C  1 YZ   -0.000025  -0.000003   0.000026   0.000096   0.000036
   30  C  2  S   -0.000001  -0.000065  -0.051451   0.078324   0.056417
   31  C  2  S   -0.000003  -0.000263  -0.076820   0.117633   0.085247
   32  C  2  X   -0.000001  -0.000045  -0.035710   0.006777  -0.059909
   33  C  2  Y   -0.000001  -0.000006  -0.020680   0.016803  -0.049936
   34  C  2  Z    0.000024   0.000001   0.000378  -0.000557  -0.000341
   35  C  2  S    0.000001   0.000309   0.199854  -0.318666  -0.238823
   36  C  2  X    0.000003  -0.000113  -0.061994   0.018818  -0.079432
   37  C  2  Y    0.000003   0.000025  -0.036196   0.028031  -0.065150
   38  C  2  Z    0.000081  -0.000001   0.000535  -0.000778  -0.000503
   39  C  2  S    0.000005   0.000952   0.089111  -0.153713  -0.150707
   40  C  2  X    0.000010  -0.000112  -0.022879  -0.001976  -0.038771
   41  C  2  Y    0.000006   0.000357  -0.009704   0.004439  -0.030348
   42  C  2  Z    0.000056  -0.000003   0.000232  -0.000343  -0.000342
   43  C  2  S    0.000007   0.000589   0.027900  -0.035191  -0.052617
   44  C  2  X    0.000001  -0.000117  -0.002800   0.002502   0.007769
   45  C  2  Y   -0.000003  -0.000014  -0.001816   0.004940   0.001459
   46  C  2  Z   -0.000004   0.000002   0.000073  -0.000058  -0.000080
   47  C  2 XX   -0.000004  -0.000281   0.008842  -0.008619  -0.001597
   48  C  2 YY   -0.000003  -0.000261   0.003138  -0.007900  -0.007988
   49  C  2 ZZ   -0.000002  -0.000213  -0.003319   0.002329  -0.000013
   50  C  2 XY   -0.000001  -0.000054   0.005910  -0.003374   0.006357
   51  C  2 XZ   -0.000003   0.000000  -0.000051  -0.000019  -0.000113
   52  C  2 YZ   -0.000003   0.000000  -0.000068   0.000099   0.000046
   53  C  2 XX   -0.000011  -0.000397   0.014613  -0.010677  -0.010611
   54  C  2 YY   -0.000007  -0.000606  -0.001225  -0.015705  -0.011075
   55  C  2 ZZ   -0.000004  -0.000329   0.001512  -0.006804  -0.007515
   56  C  2 XY   -0.000003   0.000069   0.012280  -0.007135   0.007265
   57  C  2 XZ   -0.000071  -0.000003  -0.000204   0.000109  -0.000087
   58  C  2 YZ   -0.000025   0.000003  -0.000026   0.000095  -0.000035
   59  S  3  S   -0.000000   0.000872   0.028729  -0.000001   0.018578
   60  S  3  S   -0.000000   0.002376   0.081750  -0.000002   0.053013
   61  S  3  S    0.000000  -0.004049  -0.174854   0.000005  -0.114873
   62  S  3  S    0.000000  -0.004381  -0.294349   0.000007  -0.193387
   63  S  3  S    0.000000   0.000596   0.515238  -0.000032   0.350234
   64  S  3  S   -0.000000  -0.000318   0.217051   0.000080   0.236676
   65  S  3  X    0.017350   0.000487  -0.000027   0.145764  -0.000003
   66  S  3  Y   -0.000125   1.148399  -0.060422  -0.000069   0.035678
   67  S  3  Z    1.148341   0.000118  -0.000004  -0.000565   0.000006
   68  S  3  X    0.003979   0.000112  -0.000006   0.030882  -0.000001
   69  S  3  Y   -0.000029   0.263279  -0.013294  -0.000015   0.007125
   70  S  3  Z    0.263349   0.000027  -0.000001  -0.000119   0.000001
   71  S  3  X    0.000717   0.000020   0.000026  -0.128904   0.000005
   72  S  3  Y   -0.000005   0.047270   0.054816   0.000061  -0.030487
   73  S  3  Z    0.047485   0.000005   0.000003   0.000496  -0.000005
   74  S  3  X   -0.000017  -0.000001   0.000018  -0.181415  -0.000003
   75  S  3  Y    0.000000  -0.002332   0.055846   0.000091  -0.054375
   76  S  3  Z   -0.002918  -0.000000   0.000003   0.000715  -0.000009
   77  S  3  X    0.000016  -0.000000  -0.000012  -0.036711  -0.000003
   78  S  3  Y   -0.000000   0.000210  -0.003083   0.000035  -0.024047
   79  S  3  Z    0.000594   0.000000   0.000000   0.000129  -0.000002
   80  S  3  S   -0.000000  -0.000928  -0.036183  -0.000229   0.088858
   81  S  3  X   -0.000007  -0.000000  -0.000061   0.016880   0.000049
   82  S  3  Y    0.000000  -0.000262  -0.006913  -0.000060   0.019448
   83  S  3  Z   -0.000142  -0.000000  -0.000000  -0.000105   0.000000
   84  S  3 XX    0.000000  -0.000645   0.018306  -0.000025   0.001464
   85  S  3 YY   -0.000000   0.001042   0.000813   0.000021   0.001491
   86  S  3 ZZ    0.000000  -0.000630  -0.011476  -0.000001   0.006184
   87  S  3 XY    0.000012   0.000001  -0.000010  -0.027171   0.000003
   88  S  3 XZ    0.000000  -0.000000  -0.000168  -0.000002  -0.000044
   89  S  3 YZ    0.000842   0.000000   0.000001   0.000115  -0.000001
   90  S  3 XX   -0.000000   0.000761   0.033515  -0.000045   0.006817
   91  S  3 YY    0.000000  -0.000175   0.013374   0.000024   0.007898
   92  S  3 ZZ    0.000000   0.000049  -0.002137  -0.000014   0.017959
   93  S  3 XY    0.000011  -0.000001  -0.000015  -0.043103   0.000005
   94  S  3 XZ   -0.000000  -0.000003  -0.000093  -0.000003  -0.000029
   95  S  3 YZ   -0.000215  -0.000000   0.000001   0.000238  -0.000002
   96  H  4  S    0.000001  -0.000022   0.025953   0.066360  -0.072294
   97  H  4  S   -0.000005   0.000401   0.036035   0.082550  -0.085412
   98  H  4  S    0.000008  -0.000091  -0.005222  -0.002161  -0.015357
   99  H  4  X   -0.000002   0.000090   0.007712   0.012063  -0.007559
  100  H  4  Y   -0.000000  -0.000004   0.001829   0.006705  -0.008771
  101  H  4  Z    0.000000   0.000001   0.000076   0.000166  -0.000140
  102  H  5  S   -0.000001  -0.000029   0.025179  -0.055390  -0.090550
  103  H  5  S    0.000002   0.000237   0.035679  -0.063834  -0.115118
  104  H  5  S   -0.000003  -0.000410  -0.006466  -0.000963  -0.017080
  105  H  5  X   -0.000000  -0.000033  -0.002639   0.001611  -0.002030
  106  H  5  Y   -0.000000  -0.000073  -0.007824   0.011571   0.014725
  107  H  5  Z   -0.000012  -0.000000   0.000022  -0.000051  -0.000042
  108  H  6  S    0.000001  -0.000029   0.025183   0.055382  -0.090527
  109  H  6  S   -0.000002   0.000237   0.035684   0.063829  -0.115097
  110  H  6  S    0.000003  -0.000410  -0.006467   0.000959  -0.017096
  111  H  6  X   -0.000000   0.000033   0.002630   0.001597   0.002046
  112  H  6  Y    0.000000  -0.000073  -0.007828  -0.011571   0.014721
  113  H  6  Z   -0.000012   0.000000  -0.000023  -0.000052   0.000044
  114  H  7  S   -0.000001  -0.000022   0.025945  -0.066352  -0.072303
  115  H  7  S    0.000005   0.000400   0.036027  -0.082549  -0.085426
  116  H  7  S   -0.000008  -0.000091  -0.005235   0.002158  -0.015354
  117  H  7  X   -0.000002  -0.000090  -0.007710   0.012059   0.007553
  118  H  7  Y    0.000000  -0.000004   0.001835  -0.006715  -0.008778
  119  H  7  Z    0.000000  -0.000001  -0.000077   0.000167   0.000141

                     11         12         13         14         15
                   -0.4644    -0.4579    -0.4008    -0.3570    -0.3310
                     A          A          A          A          A   
    1  C  1  S    0.005119  -0.013581  -0.003279  -0.000145  -0.012742
    2  C  1  S    0.007708  -0.020690  -0.005210  -0.000218  -0.020024
    3  C  1  X    0.097662  -0.056214   0.141883  -0.003541   0.042233
    4  C  1  Y    0.098122   0.132099   0.062098  -0.002073  -0.097031
    5  C  1  Z    0.000874   0.000460   0.002942   0.096976  -0.001221
    6  C  1  S   -0.016201   0.055153   0.012074   0.001782   0.072955
    7  C  1  X    0.133409  -0.079751   0.196380  -0.004834   0.074369
    8  C  1  Y    0.126180   0.178706   0.075981  -0.002711  -0.135136
    9  C  1  Z    0.001089   0.000598   0.004323   0.149452  -0.001823
   10  C  1  S   -0.029337   0.066277  -0.003022  -0.002052   0.012616
   11  C  1  X    0.078000  -0.040160   0.117906  -0.003608   0.043010
   12  C  1  Y    0.075454   0.101192   0.060683  -0.002062  -0.097503
   13  C  1  Z    0.000568   0.000248   0.003304   0.127495  -0.001304
   14  C  1  S   -0.031364  -0.000761   0.011871  -0.003280   0.040456
   15  C  1  X    0.000469   0.000542   0.013892  -0.000945   0.003703
   16  C  1  Y    0.015003   0.015398   0.013862   0.000046  -0.013233
   17  C  1  Z    0.000254  -0.000034   0.000051   0.006228  -0.000111
   18  C  1 XX   -0.000721  -0.006043  -0.001719   0.000150   0.011153
   19  C  1 YY    0.000419   0.006263   0.003293  -0.000047  -0.007967
   20  C  1 ZZ   -0.000129   0.000424  -0.000334  -0.000073  -0.000465
   21  C  1 XY   -0.005125   0.006885  -0.011912   0.000248  -0.000737
   22  C  1 XZ   -0.000169   0.000065  -0.000068   0.006862  -0.000051
   23  C  1 YZ   -0.000100  -0.000051  -0.000155  -0.003934   0.000060
   24  C  1 XX    0.014237   0.008606   0.007649   0.000635   0.021727
   25  C  1 YY   -0.009754  -0.012814  -0.015316   0.001233  -0.004888
   26  C  1 ZZ    0.000997   0.001909   0.000794   0.000230   0.010016
   27  C  1 XY    0.005556   0.011005  -0.001227  -0.000016  -0.001921
   28  C  1 XZ   -0.000112   0.000165   0.000225   0.018894  -0.000213
   29  C  1 YZ   -0.000195  -0.000233  -0.000511  -0.013907   0.000098
   30  C  2  S    0.005176   0.013546   0.003288   0.000148  -0.012745
   31  C  2  S    0.007793   0.020637   0.005223   0.000223  -0.020028
   32  C  2  X   -0.097734  -0.055946   0.141865  -0.003560  -0.042287
   33  C  2  Y    0.097669  -0.132431  -0.062250   0.002062  -0.097001
   34  C  2  Z   -0.000876   0.000444   0.002956   0.096975   0.001200
   35  C  2  S   -0.016450  -0.055000  -0.012153  -0.001798   0.073007
   36  C  2  X   -0.133531  -0.079383   0.196370  -0.004862  -0.074446
   37  C  2  Y    0.125573  -0.179123  -0.076186   0.002693  -0.135079
   38  C  2  Z   -0.001093   0.000574   0.004344   0.149451   0.001791
   39  C  2  S   -0.029536  -0.066200   0.003150   0.002041   0.012526
   40  C  2  X   -0.078061  -0.039925   0.117863  -0.003627  -0.043062
   41  C  2  Y    0.075111  -0.101442  -0.060820   0.002045  -0.097499
   42  C  2  Z   -0.000572   0.000236   0.003317   0.127493   0.001279
   43  C  2  S   -0.031401   0.000790  -0.011769   0.003189   0.041027
   44  C  2  X   -0.000440   0.000547   0.013867  -0.000925  -0.003816
   45  C  2  Y    0.014949  -0.015449  -0.013889  -0.000036  -0.013368
   46  C  2  Z   -0.000253  -0.000035   0.000052   0.006229   0.000110
   47  C  2 XX   -0.000690   0.006059   0.001697  -0.000148   0.011156
   48  C  2 YY    0.000385  -0.006275  -0.003275   0.000046  -0.007969
   49  C  2 ZZ   -0.000131  -0.000422   0.000333   0.000072  -0.000465
   50  C  2 XY    0.005148   0.006848  -0.011919   0.000250   0.000711
   51  C  2 XZ   -0.000170  -0.000064   0.000069  -0.006866  -0.000049
   52  C  2 YZ    0.000102  -0.000052  -0.000158  -0.003927  -0.000061
   53  C  2 XX    0.014180  -0.008633  -0.007681  -0.000636   0.021757
   54  C  2 YY   -0.009701   0.012858   0.015303  -0.001235  -0.004865
   55  C  2 ZZ    0.000977  -0.001893  -0.000823  -0.000234   0.010038
   56  C  2 XY   -0.005534   0.011048  -0.001190  -0.000015   0.001888
   57  C  2 XZ   -0.000111  -0.000165  -0.000225  -0.018906  -0.000211
   58  C  2 YZ    0.000194  -0.000231  -0.000509  -0.013889  -0.000099
   59  S  3  S   -0.001603   0.000001   0.000003  -0.000000  -0.009880
   60  S  3  S   -0.004580   0.000002   0.000008  -0.000001  -0.028275
   61  S  3  S    0.010006  -0.000004  -0.000018   0.000002   0.062091
   62  S  3  S    0.013963  -0.000003  -0.000028   0.000002   0.100324
   63  S  3  S   -0.013803  -0.000026   0.000060  -0.000000  -0.146938
   64  S  3  S   -0.053911   0.000112   0.000001  -0.000017  -0.316329
   65  S  3  X   -0.000383  -0.175605   0.118416  -0.004084  -0.000102
   66  S  3  Y   -0.124583   0.000328  -0.000000  -0.000001  -0.248207
   67  S  3  Z    0.000001   0.000701  -0.006356  -0.254973  -0.000002
   68  S  3  X   -0.000080  -0.036864   0.024635  -0.000840  -0.000021
   69  S  3  Y   -0.025751   0.000068  -0.000000  -0.000000  -0.050934
   70  S  3  Z    0.000000   0.000147  -0.001298  -0.051726  -0.000000
   71  S  3  X    0.000358   0.164997  -0.112340   0.003872   0.000099
   72  S  3  Y    0.114074  -0.000303   0.000001   0.000001   0.238248
   73  S  3  Z   -0.000001  -0.000651   0.005842   0.235922   0.000002
   74  S  3  X    0.000530   0.244359  -0.178270   0.006362   0.000151
   75  S  3  Y    0.184197  -0.000476  -0.000000   0.000000   0.381359
   76  S  3  Z   -0.000002  -0.001041   0.010041   0.414748   0.000000
   77  S  3  X    0.000130   0.062933  -0.062629   0.002338   0.000076
   78  S  3  Y    0.060159  -0.000136  -0.000024   0.000001   0.200523
   79  S  3  Z    0.000001  -0.000056   0.003553   0.178184   0.000002
   80  S  3  S    0.042899  -0.000001  -0.000075   0.000076  -0.130183
   81  S  3  X   -0.000008  -0.011980   0.005524  -0.001414  -0.000177
   82  S  3  Y    0.004011   0.000016  -0.000018   0.000017  -0.006911
   83  S  3  Z    0.000000   0.000132   0.000358   0.014256  -0.000001
   84  S  3 XX   -0.016999   0.000048  -0.000028   0.000001   0.022854
   85  S  3 YY    0.016372  -0.000048   0.000029  -0.000002  -0.012466
   86  S  3 ZZ   -0.006198   0.000009   0.000007   0.000000  -0.024955
   87  S  3 XY    0.000044   0.016110  -0.033948   0.001005  -0.000024
   88  S  3 XZ   -0.000136   0.000001   0.000000   0.000008  -0.000118
   89  S  3 YZ    0.000001  -0.000065   0.000643   0.016085  -0.000000
   90  S  3 XX   -0.040011   0.000095  -0.000043   0.000001   0.041343
   91  S  3 YY    0.037974  -0.000104   0.000056  -0.000002  -0.017407
   92  S  3 ZZ   -0.005603   0.000000   0.000018   0.000002  -0.032909
   93  S  3 XY    0.000078   0.024866  -0.059356   0.001934  -0.000045
   94  S  3 XZ   -0.000300   0.000001   0.000001   0.000015  -0.000099
   95  S  3 YZ    0.000002  -0.000173   0.001143   0.031841  -0.000001
   96  H  4  S   -0.110120  -0.000841  -0.130707   0.003004   0.032723
   97  H  4  S   -0.162599  -0.010819  -0.190296   0.004471   0.054709
   98  H  4  S   -0.028811   0.006794  -0.064749   0.002796   0.023796
   99  H  4  X   -0.014512  -0.004193  -0.011334   0.000192   0.008912
  100  H  4  Y   -0.007304   0.004056  -0.011373   0.000187  -0.001375
  101  H  4  Z   -0.000306  -0.000022  -0.000183   0.007446   0.000027
  102  H  5  S    0.066967  -0.119562  -0.052735   0.001434  -0.084415
  103  H  5  S    0.104519  -0.175360  -0.095052   0.002757  -0.121498
  104  H  5  S    0.020442  -0.034224  -0.010900  -0.000101  -0.067835
  105  H  5  X   -0.005539  -0.004118   0.006831  -0.000158  -0.002841
  106  H  5  Y   -0.010769   0.017412   0.010832  -0.000287   0.006883
  107  H  5  Z   -0.000027   0.000010   0.000233   0.008696   0.000051
  108  H  6  S    0.067467   0.119304   0.052729  -0.001439  -0.084401
  109  H  6  S    0.105251   0.174949   0.095032  -0.002760  -0.121483
  110  H  6  S    0.020586   0.034161   0.010873   0.000100  -0.067852
  111  H  6  X    0.005511  -0.004162   0.006814  -0.000156   0.002852
  112  H  6  Y   -0.010849  -0.017365  -0.010837   0.000285   0.006878
  113  H  6  Z    0.000024   0.000006   0.000230   0.008696  -0.000050
  114  H  7  S   -0.110064   0.001288   0.130736  -0.003006   0.032756
  115  H  7  S   -0.162482   0.011485   0.190356  -0.004476   0.054760
  116  H  7  S   -0.028826  -0.006644   0.064732  -0.002796   0.023788
  117  H  7  X    0.014486  -0.004256  -0.011331   0.000191  -0.008915
  118  H  7  Y   -0.007324  -0.004022   0.011381  -0.000187  -0.001367
  119  H  7  Z    0.000309  -0.000025  -0.000185   0.007445  -0.000030

                     16         17         18         19         20
                   -0.1983    -0.0564     0.0147     0.0245     0.0378
                     A          A          A          A          A   
    1  C  1  S   -0.000710   0.000110   0.027133   0.031797   0.012034
    2  C  1  S   -0.001117   0.000166   0.044772   0.050156   0.018618
    3  C  1  X    0.000060   0.000879   0.010381   0.007044  -0.031725
    4  C  1  Y   -0.001634   0.000630  -0.003886   0.013460  -0.023075
    5  C  1  Z    0.180438  -0.147762   0.000773   0.000102   0.000211
    6  C  1  S    0.004711  -0.002080  -0.051405  -0.211444  -0.182452
    7  C  1  X    0.000140   0.001582   0.013830   0.019680  -0.052865
    8  C  1  Y   -0.002504   0.001020  -0.002730   0.020612  -0.044110
    9  C  1  Z    0.272286  -0.219127   0.001425   0.000313   0.000221
   10  C  1  S    0.000475   0.004807  -0.658914  -0.167024   0.393083
   11  C  1  X   -0.000824   0.001642   0.025874   0.068473   0.021793
   12  C  1  Y   -0.002730   0.001265  -0.014180  -0.071792  -0.100478
   13  C  1  Z    0.319315  -0.343118   0.001976  -0.000590   0.000164
   14  C  1  S    0.003189   0.020284  -1.168823  -3.483067  -3.535884
   15  C  1  X    0.000593   0.004003  -0.715656  -1.234347  -1.072531
   16  C  1  Y   -0.001008  -0.002934   0.415710   0.771458   0.717070
   17  C  1  Z    0.098244  -0.308724  -0.001529  -0.000787   0.007353
   18  C  1 XX    0.000057   0.000068   0.002592  -0.006715  -0.002140
   19  C  1 YY    0.000085  -0.000076  -0.005003   0.002152  -0.001156
   20  C  1 ZZ   -0.000019  -0.000042   0.002951  -0.002522  -0.002286
   21  C  1 XY   -0.000093  -0.000020   0.003250  -0.002469  -0.002300
   22  C  1 XZ    0.002445   0.004590   0.000037  -0.000005   0.000017
   23  C  1 YZ   -0.002285  -0.003513  -0.000035  -0.000062   0.000034
   24  C  1 XX    0.001243  -0.000874   0.057744  -0.026035  -0.043537
   25  C  1 YY    0.001152  -0.001402   0.030439  -0.030131  -0.090551
   26  C  1 ZZ    0.000367  -0.000662   0.067428  -0.037096  -0.070957
   27  C  1 XY    0.000068  -0.000029   0.000898  -0.029311  -0.024691
   28  C  1 XZ    0.009684   0.006306  -0.000036  -0.000295  -0.000012
   29  C  1 YZ   -0.011051  -0.013138  -0.000170  -0.000121   0.000074
   30  C  2  S   -0.000714  -0.000117   0.027194  -0.031761   0.011896
   31  C  2  S   -0.001123  -0.000178   0.044859  -0.050073   0.018351
   32  C  2  X   -0.000035   0.000886  -0.010410   0.006850   0.031735
   33  C  2  Y   -0.001618  -0.000620  -0.003845  -0.013468  -0.023170
   34  C  2  Z   -0.180436  -0.147763  -0.000776   0.000093  -0.000207
   35  C  2  S    0.004722   0.002119  -0.052413   0.213023  -0.184733
   36  C  2  X   -0.000099   0.001593  -0.013862   0.019315   0.052993
   37  C  2  Y   -0.002479  -0.001007  -0.002681  -0.020643  -0.044281
   38  C  2  Z   -0.272284  -0.219127  -0.001432   0.000301  -0.000215
   39  C  2  S    0.000533  -0.004741  -0.657086   0.159861   0.405453
   40  C  2  X    0.000876   0.001657  -0.026179   0.069222  -0.022306
   41  C  2  Y   -0.002699  -0.001243  -0.014199   0.072267  -0.100543
   42  C  2  Z   -0.319313  -0.343119  -0.001981  -0.000607  -0.000157
   43  C  2  S    0.002916  -0.020219  -1.191205   3.559426  -3.574083
   44  C  2  X   -0.000520   0.004005   0.721443  -1.253056   1.078132
   45  C  2  Y   -0.000947   0.002960   0.420023  -0.778188   0.724247
   46  C  2  Z   -0.098242  -0.308738   0.001545  -0.000714  -0.007419
   47  C  2 XX    0.000057  -0.000069   0.002567   0.006744  -0.002164
   48  C  2 YY    0.000084   0.000077  -0.005002  -0.002128  -0.001223
   49  C  2 ZZ   -0.000019   0.000042   0.002932   0.002565  -0.002337
   50  C  2 XY    0.000092  -0.000018  -0.003254  -0.002492   0.002288
   51  C  2 XZ    0.002447  -0.004593   0.000036   0.000005   0.000018
   52  C  2 YZ    0.002282  -0.003509   0.000034  -0.000062  -0.000035
   53  C  2 XX    0.001238   0.000879   0.057315   0.027011  -0.045244
   54  C  2 YY    0.001150   0.001414   0.030019   0.031280  -0.092447
   55  C  2 ZZ    0.000364   0.000660   0.066990   0.038207  -0.072836
   56  C  2 XY   -0.000075  -0.000025  -0.000879  -0.029479   0.024566
   57  C  2 XZ    0.009691  -0.006323  -0.000037   0.000293  -0.000007
   58  C  2 YZ    0.011042  -0.013132   0.000163  -0.000122  -0.000081
   59  S  3  S   -0.000117  -0.000001  -0.002119  -0.000018   0.008219
   60  S  3  S   -0.000336  -0.000002  -0.006139  -0.000050   0.023622
   61  S  3  S    0.000742   0.000004   0.013796   0.000112  -0.052587
   62  S  3  S    0.001171   0.000007   0.043863   0.000193  -0.102590
   63  S  3  S   -0.002704  -0.000011   0.011663  -0.000745   0.138890
   64  S  3  S   -0.000229  -0.000030  -0.451562   0.000965   0.391150
   65  S  3  X    0.000006  -0.001040  -0.000100   0.069939   0.000142
   66  S  3  Y   -0.000321   0.000017  -0.060346  -0.000101   0.017870
   67  S  3  Z    0.000002  -0.194715  -0.000003  -0.001315  -0.000002
   68  S  3  X    0.000001  -0.000201  -0.000021   0.014175   0.000027
   69  S  3  Y   -0.000069   0.000003  -0.012742  -0.000020   0.004905
   70  S  3  Z    0.000000  -0.038779  -0.000001  -0.000279  -0.000000
   71  S  3  X   -0.000007   0.000954   0.000116  -0.075416  -0.000125
   72  S  3  Y    0.000380  -0.000016   0.067206   0.000096  -0.028006
   73  S  3  Z   -0.000002   0.193607   0.000004   0.001501   0.000002
   74  S  3  X   -0.000005   0.001946   0.000085  -0.073959  -0.000322
   75  S  3  Y    0.000286  -0.000034   0.073795   0.000250  -0.003321
   76  S  3  Z   -0.000005   0.354386   0.000005   0.001554   0.000003
   77  S  3  X    0.000004   0.005861   0.000394  -0.169510  -0.001003
   78  S  3  Y    0.001256  -0.000038   0.330839   0.000672  -0.327373
   79  S  3  Z    0.000000   0.419821   0.000016   0.005130  -0.000006
   80  S  3  S   -0.007126  -0.000050   4.270368  -0.065781   6.357143
   81  S  3  X    0.000078   0.012951   0.007767  -2.798222   0.011556
   82  S  3  Y   -0.001500  -0.000039   0.557987  -0.015839   2.319871
   83  S  3  Z   -0.000003   0.337778   0.000018   0.016100   0.000131
   84  S  3 XX    0.000243   0.000003  -0.013891   0.000009  -0.004884
   85  S  3 YY   -0.000586   0.000002   0.018004   0.000000  -0.022380
   86  S  3 ZZ    0.000081  -0.000006   0.038442  -0.000025   0.006650
   87  S  3 XY   -0.000000  -0.000828  -0.000019   0.039905   0.000077
   88  S  3 XZ   -0.050535  -0.000015   0.000100   0.000001   0.000058
   89  S  3 YZ    0.000025  -0.030321  -0.000002  -0.000292  -0.000003
   90  S  3 XX    0.000170   0.000006   0.014518   0.000006  -0.053288
   91  S  3 YY   -0.001691   0.000004   0.089828  -0.000127  -0.111388
   92  S  3 ZZ    0.000144  -0.000011   0.132662  -0.000279   0.008572
   93  S  3 XY    0.000004  -0.001699  -0.000068   0.128615   0.000217
   94  S  3 XZ   -0.116185  -0.000039   0.000174   0.000003   0.000385
   95  S  3 YZ    0.000056  -0.075384  -0.000006  -0.000723  -0.000010
   96  H  4  S   -0.000690   0.000815   0.005359  -0.022833   0.006305
   97  H  4  S   -0.001490   0.001767   0.063951   0.013090  -0.019740
   98  H  4  S   -0.000076  -0.002474  -0.008322  -0.134614   0.090848
   99  H  4  X   -0.000166   0.000228  -0.007692  -0.006613  -0.001324
  100  H  4  Y   -0.000259   0.000268  -0.003962  -0.007972   0.005009
  101  H  4  Z    0.017210  -0.016329  -0.000059  -0.000140   0.000084
  102  H  5  S   -0.000474  -0.000026  -0.025815  -0.022045  -0.004545
  103  H  5  S   -0.000916  -0.000323   0.021067  -0.095763   0.049636
  104  H  5  S    0.000398   0.002044  -0.175731  -0.148193  -0.075991
  105  H  5  X    0.000068   0.000069  -0.001431  -0.002793   0.005735
  106  H  5  Y   -0.000020   0.000049   0.007558  -0.005844   0.003888
  107  H  5  Z   -0.016830  -0.017554  -0.000089  -0.000073  -0.000045
  108  H  6  S   -0.000466   0.000021  -0.025866   0.021958  -0.004493
  109  H  6  S   -0.000899   0.000309   0.020911   0.096101   0.049993
  110  H  6  S    0.000393  -0.002047  -0.175992   0.144711  -0.075251
  111  H  6  X   -0.000065   0.000067   0.001451  -0.002756  -0.005730
  112  H  6  Y   -0.000024  -0.000046   0.007546   0.005872   0.003944
  113  H  6  Z    0.016830  -0.017554   0.000090  -0.000072   0.000045
  114  H  7  S   -0.000692  -0.000832   0.005336   0.022790   0.006468
  115  H  7  S   -0.001502  -0.001801   0.063909  -0.012510  -0.020081
  116  H  7  S   -0.000065   0.002453  -0.007659   0.131294   0.093504
  117  H  7  X    0.000170   0.000231   0.007701  -0.006589   0.001287
  118  H  7  Y   -0.000259  -0.000269  -0.003982   0.007910   0.005045
  119  H  7  Z   -0.017208  -0.016329   0.000060  -0.000140  -0.000085

                     21         22         23         24         25
                    0.0566     0.0616     0.0729     0.0776     0.0785
                     A          A          A          A          A   
    1  C  1  S    0.000285   0.007727  -0.004601  -0.008379  -0.018777
    2  C  1  S    0.000463   0.011227  -0.007353  -0.014409  -0.031295
    3  C  1  X   -0.000440  -0.031627   0.015065  -0.033802   0.075954
    4  C  1  Y   -0.000050   0.080495  -0.046209   0.002074   0.016185
    5  C  1  Z   -0.060229   0.000512   0.000455   0.000478  -0.000004
    6  C  1  S   -0.001717  -0.095949  -0.041368   0.012019  -0.164452
    7  C  1  X   -0.000673  -0.036392   0.021843  -0.049942   0.130126
    8  C  1  Y   -0.000186   0.137246  -0.088120   0.006405   0.041006
    9  C  1  Z   -0.080983   0.000988   0.000591   0.000697   0.000551
   10  C  1  S   -0.002403   0.064490   0.293421   0.201313   1.365377
   11  C  1  X   -0.002368  -0.192915   0.025774  -0.332787   0.314777
   12  C  1  Y   -0.000604   0.328437  -0.014457   0.007071  -0.092225
   13  C  1  Z   -0.170790   0.002146   0.001990   0.000495  -0.002512
   14  C  1  S   -0.096528  -3.425999   0.834655  -5.541803   2.019110
   15  C  1  X   -0.026432  -1.389642  -0.437497  -0.747131  -0.935118
   16  C  1  Y    0.022632  -0.547726   0.997417   0.006363  -1.532845
   17  C  1  Z    0.126476   0.000555  -0.001615   0.000382  -0.001857
   18  C  1 XX   -0.000061   0.004427   0.004314  -0.003884   0.003969
   19  C  1 YY    0.000049  -0.007362  -0.005996  -0.002880  -0.010618
   20  C  1 ZZ   -0.000007  -0.001564   0.000854   0.004823   0.000965
   21  C  1 XY   -0.000047  -0.001642  -0.002707   0.001236   0.003371
   22  C  1 XZ   -0.002705  -0.000035  -0.000029   0.000042  -0.000094
   23  C  1 YZ    0.001747  -0.000038   0.000030  -0.000065  -0.000050
   24  C  1 XX   -0.000304  -0.050102  -0.020247  -0.062584  -0.103425
   25  C  1 YY   -0.000057  -0.045340  -0.060216  -0.024204  -0.183492
   26  C  1 ZZ   -0.000073  -0.034353  -0.023285   0.013066  -0.131074
   27  C  1 XY    0.000084  -0.013725  -0.019778   0.051066  -0.009746
   28  C  1 XZ   -0.013933   0.000003  -0.000150   0.001073  -0.000602
   29  C  1 YZ   -0.000096  -0.000251  -0.000163   0.000320  -0.000175
   30  C  2  S   -0.000284   0.007680   0.004552  -0.007900   0.018999
   31  C  2  S   -0.000460   0.011102   0.007275  -0.013673   0.031695
   32  C  2  X   -0.000446   0.031772   0.015201   0.036136   0.074771
   33  C  2  Y    0.000043   0.080445   0.046127   0.001306  -0.016432
   34  C  2  Z   -0.060230  -0.000511   0.000461  -0.000478   0.000024
   35  C  2  S    0.001749  -0.098625   0.041743   0.012458   0.165181
   36  C  2  X   -0.000682   0.036752   0.022087   0.054120   0.128396
   37  C  2  Y    0.000169   0.137148   0.088000   0.004607  -0.041508
   38  C  2  Z   -0.080983  -0.000987   0.000604  -0.000676   0.000595
   39  C  2  S    0.002237   0.075496  -0.293369   0.179220  -1.374558
   40  C  2  X   -0.002406   0.192732   0.026723   0.341290   0.304364
   41  C  2  Y    0.000594   0.328261   0.014069   0.009196   0.090973
   42  C  2  Z   -0.170794  -0.002122   0.001988  -0.000553  -0.002450
   43  C  2  S    0.099865  -3.485900  -0.862967  -5.699700  -1.862429
   44  C  2  X   -0.027285   1.397966  -0.434453   0.736881  -0.952863
   45  C  2  Y   -0.022766  -0.535997  -0.994827   0.079383   1.536494
   46  C  2  Z    0.126491  -0.000757  -0.001805  -0.000706  -0.001960
   47  C  2 XX    0.000061   0.004385  -0.004329  -0.004053  -0.003816
   48  C  2 YY   -0.000047  -0.007407   0.006004  -0.002645   0.010732
   49  C  2 ZZ    0.000008  -0.001629  -0.000836   0.004700  -0.001112
   50  C  2 XY   -0.000048   0.001619  -0.002697  -0.001130   0.003437
   51  C  2 XZ    0.002706  -0.000034   0.000029   0.000045   0.000093
   52  C  2 YZ    0.001744   0.000037   0.000031   0.000062  -0.000051
   53  C  2 XX    0.000337  -0.051860   0.020151  -0.062368   0.106006
   54  C  2 YY    0.000081  -0.047112   0.060333  -0.021655   0.184844
   55  C  2 ZZ    0.000098  -0.036248   0.023470   0.013902   0.131203
   56  C  2 XY    0.000083   0.013731  -0.019895  -0.051192  -0.008122
   57  C  2 XZ    0.013933   0.000004   0.000152   0.001093   0.000566
   58  C  2 YZ   -0.000111   0.000252  -0.000160  -0.000342  -0.000160
   59  S  3  S   -0.000000   0.007794  -0.000013  -0.005182   0.000077
   60  S  3  S   -0.000000   0.022418  -0.000038  -0.014998   0.000223
   61  S  3  S    0.000000  -0.050099   0.000084   0.033799  -0.000503
   62  S  3  S   -0.000002  -0.096776   0.000212   0.097531  -0.001533
   63  S  3  S   -0.000015  -0.019711   0.000300   0.202592  -0.003608
   64  S  3  S    0.000048   1.093225  -0.002504  -1.264581   0.021274
   65  S  3  X    0.001342  -0.000001  -0.003500  -0.001349  -0.091418
   66  S  3  Y   -0.000000  -0.031617   0.000040   0.022569  -0.000329
   67  S  3  Z    0.055781   0.000004   0.000280   0.000029   0.001313
   68  S  3  X    0.000294  -0.000003   0.000436  -0.000277  -0.018291
   69  S  3  Y   -0.000000  -0.005830   0.000008   0.005545  -0.000085
   70  S  3  Z    0.013898   0.000001   0.000037   0.000006   0.000273
   71  S  3  X   -0.001581   0.000026  -0.007873   0.001393   0.089768
   72  S  3  Y    0.000001   0.025802  -0.000043  -0.035267   0.000559
   73  S  3  Z   -0.080842  -0.000007  -0.000123  -0.000034  -0.001439
   74  S  3  X   -0.001605  -0.000109   0.061069   0.002777   0.210171
   75  S  3  Y   -0.000002   0.103648  -0.000035   0.044669  -0.000915
   76  S  3  Z    0.002499   0.000009  -0.001364  -0.000031  -0.002258
   77  S  3  X   -0.010426  -0.000022  -0.109940   0.014254   0.946646
   78  S  3  Y   -0.000032   0.308962   0.000444   0.145109  -0.001996
   79  S  3  Z   -0.412547  -0.000029   0.000558  -0.000163  -0.007663
   80  S  3  S   -0.003020   6.209060   0.026404  10.741335  -0.151389
   81  S  3  X   -0.049696   0.019504   0.841986   0.066818   2.318626
   82  S  3  Y   -0.000805   2.550816   0.006395   3.485078  -0.054166
   83  S  3  Z    1.144657   0.000260  -0.001990   0.000279  -0.000866
   84  S  3 XX    0.000003  -0.055039   0.000021   0.014245  -0.000272
   85  S  3 YY    0.000000   0.004952   0.000033   0.006607  -0.000087
   86  S  3 ZZ   -0.000008   0.030415   0.000085   0.062710  -0.001065
   87  S  3 XY    0.000344   0.000039  -0.036371  -0.001057  -0.075332
   88  S  3 XZ   -0.000010   0.000423  -0.000002   0.000289  -0.000008
   89  S  3 YZ   -0.020497  -0.000005   0.000298  -0.000002   0.000333
   90  S  3 XX    0.000000  -0.191535   0.000362   0.231586  -0.003916
   91  S  3 YY   -0.000008  -0.066525   0.000410   0.188570  -0.003106
   92  S  3 ZZ   -0.000029  -0.017854   0.000520   0.323304  -0.005464
   93  S  3 XY    0.000602   0.000103  -0.097901  -0.001870  -0.136974
   94  S  3 XZ   -0.000032   0.000924  -0.000007   0.000100  -0.000007
   95  S  3 YZ   -0.063736  -0.000015   0.000759  -0.000007   0.000686
   96  H  4  S    0.000012   0.000004  -0.000217  -0.004792   0.001482
   97  H  4  S   -0.001135   0.083089   0.020005  -0.111075   0.114417
   98  H  4  S    0.002021  -0.230349  -0.058760  -0.151225  -0.546057
   99  H  4  X    0.000017  -0.009312   0.001545   0.002861  -0.004824
  100  H  4  Y    0.000092   0.012297   0.008519   0.002316   0.000323
  101  H  4  Z   -0.000659   0.000105   0.000110  -0.000053   0.000099
  102  H  5  S   -0.000267   0.002614   0.040150  -0.012020   0.035373
  103  H  5  S   -0.001018  -0.125737  -0.017109  -0.041481   0.082587
  104  H  5  S   -0.004390   0.133805   0.650701  -0.061664   0.132409
  105  H  5  X   -0.000095   0.007439  -0.002073   0.000772   0.010333
  106  H  5  Y   -0.000100  -0.007803  -0.002458  -0.004058   0.014088
  107  H  5  Z    0.000037  -0.000089   0.000076   0.000036   0.000030
  108  H  6  S    0.000265   0.002540  -0.040185  -0.012993  -0.034940
  109  H  6  S    0.001065  -0.125587   0.016983  -0.043867  -0.081186
  110  H  6  S    0.004216   0.133450  -0.650111  -0.063193  -0.128130
  111  H  6  X   -0.000094  -0.007431  -0.002069  -0.000426   0.010324
  112  H  6  Y    0.000103  -0.007777   0.002452  -0.004458  -0.013955
  113  H  6  Z    0.000037   0.000088   0.000076  -0.000035   0.000028
  114  H  7  S   -0.000014   0.000147   0.000193  -0.004659  -0.001335
  115  H  7  S    0.001153   0.082723  -0.020626  -0.115105  -0.111436
  116  H  7  S   -0.002056  -0.226526   0.059353  -0.129121   0.552715
  117  H  7  X    0.000018   0.009283   0.001518  -0.003056  -0.004715
  118  H  7  Y   -0.000096   0.012301  -0.008518   0.002366  -0.000413
  119  H  7  Z   -0.000659  -0.000105   0.000110   0.000056   0.000098

                     26         27         28         29         30
                    0.0952     0.1101     0.1144     0.1286     0.1437
                     A          A          A          A          A   
    1  C  1  S    0.000019  -0.000133  -0.031750   0.022496   0.017372
    2  C  1  S    0.000029  -0.000259  -0.055935   0.034408   0.028782
    3  C  1  X    0.001223  -0.001341  -0.009275  -0.095022  -0.025116
    4  C  1  Y   -0.000506  -0.000308  -0.012798   0.052342   0.023655
    5  C  1  Z    0.076262   0.083527  -0.000152   0.001785   0.000041
    6  C  1  S   -0.000630  -0.002398  -0.306664  -0.106333   0.188720
    7  C  1  X    0.001886  -0.001543   0.012381  -0.149295  -0.031815
    8  C  1  Y   -0.000253   0.000469  -0.028602   0.065777   0.047849
    9  C  1  Z    0.084801   0.096268  -0.000606   0.002073  -0.000177
   10  C  1  S    0.002178   0.013558   2.248111  -0.625962  -1.614335
   11  C  1  X    0.008696  -0.011137  -0.249724  -0.571179  -0.248620
   12  C  1  Y   -0.003118  -0.003808  -0.104001   0.473044   0.211644
   13  C  1  Z    0.333851   0.381310  -0.000562   0.010628   0.002790
   14  C  1  S    0.163529   0.180154  -8.714301  -0.856395   0.509485
   15  C  1  X    0.034128   0.018863  -2.657692   0.486129  -1.664006
   16  C  1  Y   -0.026688  -0.048473   1.690134   1.107616  -1.679714
   17  C  1  Z   -1.240684  -1.692478  -0.002821  -0.000700   0.006049
   18  C  1 XX   -0.000097  -0.000223  -0.006930   0.015257   0.001261
   19  C  1 YY    0.000117  -0.000045  -0.005472  -0.014436   0.011240
   20  C  1 ZZ   -0.000060   0.000083  -0.002971  -0.006533  -0.006245
   21  C  1 XY    0.000070  -0.000131  -0.010504   0.002642  -0.005821
   22  C  1 XZ    0.002349  -0.002461  -0.000151   0.000086  -0.000016
   23  C  1 YZ   -0.000742   0.000639  -0.000054   0.000058   0.000054
   24  C  1 XX   -0.000300  -0.002613  -0.296434  -0.002997   0.122585
   25  C  1 YY    0.000095  -0.001532  -0.281703  -0.053998   0.187997
   26  C  1 ZZ   -0.000757  -0.001836  -0.262554  -0.009525   0.121299
   27  C  1 XY   -0.000565   0.000355  -0.042927   0.038246  -0.009558
   28  C  1 XZ    0.024090  -0.001895   0.000454   0.000991  -0.000220
   29  C  1 YZ   -0.009851  -0.020403   0.000144  -0.000262  -0.000193
   30  C  2  S    0.000031   0.000105  -0.032064   0.022462  -0.017351
   31  C  2  S    0.000053   0.000207  -0.056632   0.034352  -0.028757
   32  C  2  X   -0.001206  -0.001327   0.009077   0.094982  -0.025104
   33  C  2  Y   -0.000492   0.000297  -0.013004   0.052231  -0.023568
[...]
   7  A         -476.4320440256    6.259     0.0080 -0.0001  0.2650    0.0108
   8  A         -476.4264679452    6.411     0.0176  0.0000 -0.2468    0.0096
   9  A         -476.4228202315    6.510     0.0002  0.0002 -0.0014    0.0000
  10  A         -476.4224728542    6.519    -0.0130  0.0001  0.0343    0.0002
  11  A         -476.3960086955    7.240     0.0001  0.2012  0.0002    0.0072
  12  A         -476.3865290962    7.498    -0.0000 -0.0090  0.0058    0.0000
  13  A         -476.3799008858    7.678    -0.0806 -0.0000  0.0097    0.0012
  14  A         -476.3788331266    7.707    -0.0003  0.0314 -0.0025    0.0002
  15  A         -476.3760967574    7.781    -0.0003 -0.6847 -0.0003    0.0894
  16  A         -476.3694503616    7.962     0.0001  0.0969 -0.0009    0.0018
  17  A         -476.3539589516    8.384     0.0023 -0.0000  0.8207    0.1383
  18  A         -476.3482701469    8.539     0.0005  0.0988  0.0001    0.0020
  19  A         -476.3375670300    8.830     0.0383 -0.0000 -0.8196    0.1456
  20  A         -476.3370940497    8.843    -0.7627 -0.0022 -0.0367    0.1263
  
 TRANSITION        EXCITATION            TRANSITION DIPOLE, A.U.     OSCILLATOR
                       EV              X       Y       Z       DIP    STRENGTH

  1  ->  2           0.985         -0.0128 -0.0001  0.9296   0.9297    0.0209
  1  ->  3           1.321          0.0000 -0.0225  0.0005   0.0225    0.0000
  1  ->  4           1.728         -0.0050  0.0001 -0.6025   0.6026    0.0154
  1  ->  5           2.142         -0.0063 -0.0001 -0.3202   0.3202    0.0054
  1  ->  6           2.281          0.0003  0.6369 -0.0000   0.6369    0.0227
  1  ->  7           2.464          0.0000 -0.0181 -0.0000   0.0181    0.0000
  1  ->  8           2.616          0.0001  0.0065  0.0001   0.0065    0.0000
  1  ->  9           2.715          0.0148 -0.0001  0.1135   0.1145    0.0009
  1  -> 10           2.724          0.0002  0.0147  0.0009   0.0148    0.0000
  1  -> 11           3.444          1.0238 -0.0005 -0.0064   1.0239    0.0885
  1  -> 12           3.702         -0.0068  0.0001 -0.3435   0.3435    0.0107
  1  -> 13           3.883          0.0005  0.5395  0.0026   0.5395    0.0277
  1  -> 14           3.912         -0.0741  0.0019 -0.6452   0.6494    0.0404
  1  -> 15           3.986          1.7744 -0.0009 -0.0348   1.7748    0.3076
  1  -> 16           4.167         -0.2362  0.0001  0.0502   0.2415    0.0060
  1  -> 17           4.589         -0.0000  0.0051  0.0011   0.0052    0.0000
  1  -> 18           4.743         -0.3067  0.0001  0.0022   0.3068    0.0109
  1  -> 19           5.035          0.0001  0.0067 -0.0138   0.0154    0.0000
  1  -> 20           5.048          0.0000  0.0335 -0.0006   0.0335    0.0001
  2  ->  3           0.336         -3.1429 -0.0000 -0.0344   3.1431    0.0813
  2  ->  4           0.743          0.0031 -2.4931  0.0000   2.4931    0.1131
  2  ->  5           1.157         -0.0037 -0.9723 -0.0007   0.9723    0.0268
  2  ->  6           1.296          0.0070 -0.0004  3.0099   3.0099    0.2876
  2  ->  7           1.479          1.0592 -0.0003 -0.0546   1.0606    0.0408
  2  ->  8           1.631         -2.2626 -0.0011 -0.0056   2.2626    0.2045
  2  ->  9           1.730         -0.0021 -0.2534  0.0003   0.2534    0.0027
  2  -> 10           1.739          0.5548 -0.0041 -0.0214   0.5552    0.0131
  2  -> 11           2.460         -0.0000  0.0057  0.0008   0.0058    0.0000
  2  -> 12           2.718          0.0013  0.0057 -0.0000   0.0058    0.0000
  2  -> 13           2.898          0.0030 -0.0001  0.7860   0.7860    0.0439
  2  -> 14           2.927         -0.0009  0.0403  0.0029   0.0405    0.0001
  2  -> 15           3.001         -0.0001  0.0077  0.0001   0.0077    0.0000
  2  -> 16           3.182         -0.0003  0.0332 -0.0000   0.0332    0.0001
  2  -> 17           3.604          0.2115 -0.0002 -0.0021   0.2115    0.0039
  2  -> 18           3.759         -0.0001  0.0065 -0.0001   0.0065    0.0000
  2  -> 19           4.050         -0.2650 -0.0012  0.0094   0.2651    0.0070
  2  -> 20           4.063          0.0052 -0.0000  0.1279   0.1280    0.0016
  3  ->  4           0.407          0.0555 -0.0060  0.0047   0.0560    0.0000
  3  ->  5           0.821         -0.4429  0.0011 -0.0004   0.4429    0.0039
  3  ->  6           0.960         -0.0002  0.0156  0.0007   0.0156    0.0000
  3  ->  7           1.143          0.0000 -0.1545 -0.0000   0.1545    0.0007
  3  ->  8           1.295          0.0093  1.7220  0.0001   1.7220    0.0941
  3  ->  9           1.394          2.6856 -0.0183 -0.0325   2.6858    0.2464
  3  -> 10           1.403          0.0232  2.5464 -0.0002   2.5466    0.2230
  3  -> 11           2.124         -0.0376  0.0001 -2.1332   2.1335    0.2368
  3  -> 12           2.382          1.0801 -0.0010  0.0372   1.0808    0.0682
  3  -> 13           2.562         -0.0043 -0.0254  0.0002   0.0258    0.0000
  3  -> 14           2.591          1.1499 -0.0023 -0.0104   1.1499    0.0839
  3  -> 15           2.665          0.0485 -0.0001 -0.3271   0.3307    0.0071
  3  -> 16           2.846         -0.0129  0.0004  0.0297   0.0324    0.0001
  3  -> 17           3.268          0.0020  0.1640  0.0001   0.1640    0.0022
  3  -> 18           3.423         -0.0024  0.0000 -0.0866   0.0866    0.0006
  3  -> 19           3.714          0.0064  0.2994 -0.0001   0.2995    0.0082
  3  -> 20           3.727          0.0002  0.0162 -0.0003   0.0162    0.0000
  4  ->  5           0.414          0.0030  2.2182  0.0000   2.2182    0.0499
  4  ->  6           0.553          0.0284  0.0004  0.6664   0.6670    0.0060
  4  ->  7           0.736         -0.2995 -0.0001 -0.0173   0.3000    0.0016
  4  ->  8           0.888          1.8722  0.0004 -0.0157   1.8723    0.0763
  4  ->  9           0.987         -0.0230  1.5243  0.0005   1.5245    0.0562
  4  -> 10           0.997          2.6861  0.0072 -0.0201   2.6862    0.1762
  4  -> 11           1.717          0.0001  0.0453  0.0046   0.0455    0.0001
  4  -> 12           1.975         -0.0014  0.7804 -0.0004   0.7804    0.0295
  4  -> 13           2.155         -0.0160  0.0072 -2.0397   2.0398    0.2197
  4  -> 14           2.184         -0.0039 -2.0130 -0.0073   2.0131    0.2168
  4  -> 15           2.259         -0.0002 -0.1005  0.0007   0.1005    0.0006
  4  -> 16           2.439          0.0002 -0.0012  0.0000   0.0012    0.0000
  4  -> 17           2.861          0.7849 -0.0009 -0.0073   0.7849    0.0432
  4  -> 18           3.016         -0.0000  0.0007  0.0003   0.0008    0.0000
  4  -> 19           3.307          0.3617  0.0167 -0.0155   0.3624    0.0106
  4  -> 20           3.320          0.0141  0.0007 -0.1526   0.1532    0.0019
  5  ->  6           0.139          0.0173  0.0005 -0.0562   0.0588    0.0000
  5  ->  7           0.322          0.6755  0.0000 -0.0025   0.6755    0.0036
  5  ->  8           0.474         -1.2318 -0.0000  0.0035   1.2318    0.0176
  5  ->  9           0.573         -0.0071 -0.1841 -0.0004   0.1842    0.0005
  5  -> 10           0.583          1.5389 -0.0019 -0.0100   1.5389    0.0338
  5  -> 11           1.303         -0.0007 -0.0192 -0.0043   0.0197    0.0000
  5  -> 12           1.561          0.0023 -1.1299  0.0003   1.1299    0.0488
  5  -> 13           1.741          0.0267 -0.0020 -0.2567   0.2581    0.0028
  5  -> 14           1.770          0.0027  0.4934 -0.0008   0.4934    0.0106
  5  -> 15           1.845          0.0000  0.0363 -0.0007   0.0363    0.0001
  5  -> 16           2.026         -0.0005  0.0264  0.0000   0.0264    0.0000
  5  -> 17           2.447         -1.5324  0.0003  0.0156   1.5325    0.1408
  5  -> 18           2.602         -0.0000  0.0005 -0.0002   0.0006    0.0000
  5  -> 19           2.893         -0.7964 -0.0075  0.0051   0.7965    0.0450
  5  -> 20           2.906         -0.0359 -0.0004 -0.0133   0.0383    0.0001
  6  ->  7           0.183          0.0002  0.0450 -0.0001   0.0450    0.0000
  6  ->  8           0.335         -0.0004  0.0379  0.0056   0.0383    0.0000
  6  ->  9           0.434          0.0362 -0.0007  1.9177   1.9180    0.0391
  6  -> 10           0.444          0.0008  0.0367  0.0121   0.0386    0.0000
  6  -> 11           1.164          2.4460 -0.0012 -0.0547   2.4467    0.1707
  6  -> 12           1.422         -0.0083  0.0003 -1.5157   1.5158    0.0800
  6  -> 13           1.602          0.0010  2.1775  0.0012   2.1775    0.1861
  6  -> 14           1.631          0.0207  0.0079 -0.1503   0.1519    0.0009
  6  -> 15           1.706          0.1163 -0.0000  0.0180   0.1177    0.0006
  6  -> 16           1.886         -0.0094 -0.0001  0.1341   0.1344    0.0008
  6  -> 17           2.308         -0.0005 -0.0018  0.0005   0.0019    0.0000
  6  -> 18           2.463          0.1986 -0.0003 -0.0058   0.1987    0.0024
  6  -> 19           2.754          0.0004  0.0009  0.0033   0.0034    0.0000
  6  -> 20           2.767          0.0009  0.1785  0.0002   0.1785    0.0022
  7  ->  8           0.152         -0.0027  0.2575 -0.0001   0.2575    0.0002
  7  ->  9           0.251         -0.9768  0.0028 -0.0302   0.9773    0.0059
  7  -> 10           0.260         -0.0066 -0.4332 -0.0002   0.4332    0.0012
  7  -> 11           0.981         -0.0399 -0.0000  0.5748   0.5761    0.0080
  7  -> 12           1.239         -0.4405 -0.0002  0.0230   0.4411    0.0059
  7  -> 13           1.419          0.0019 -0.0420 -0.0001   0.0420    0.0001
  7  -> 14           1.448         -0.5174  0.0001  0.0184   0.5177    0.0095
  7  -> 15           1.522         -0.0826  0.0000 -0.1297   0.1537    0.0009
  7  -> 16           1.703         -0.4577  0.0000  0.0214   0.4582    0.0088
  7  -> 17           2.125         -0.0000 -0.0623 -0.0000   0.0623    0.0002
  7  -> 18           2.280         -0.0027  0.0000 -0.3150   0.3150    0.0055
  7  -> 19           2.571          0.0023  0.0402 -0.0001   0.0403    0.0001
  7  -> 20           2.584          0.0001  0.0095  0.0004   0.0095    0.0000
  8  ->  9           0.099          2.2934 -0.0065 -0.0250   2.2935    0.0128
  8  -> 10           0.109          0.0130  0.5271 -0.0002   0.5273    0.0007
  8  -> 11           0.829          0.0196  0.0003 -1.1556   1.1557    0.0271
  8  -> 12           1.087          1.8008  0.0078  0.0132   1.8009    0.0863
  8  -> 13           1.267         -0.0027  0.0054 -0.0024   0.0066    0.0000
  8  -> 14           1.296          0.6600 -0.0033 -0.0126   0.6601    0.0138
  8  -> 15           1.371         -0.0007 -0.0003 -0.2399   0.2399    0.0019
  8  -> 16           1.552         -0.2076 -0.0011  0.0256   0.2091    0.0017
  8  -> 17           1.973          0.0032 -0.6258 -0.0001   0.6258    0.0189
  8  -> 18           2.128         -0.0005  0.0000 -0.1377   0.1377    0.0010
  8  -> 19           2.419         -0.0003 -1.0207 -0.0002   1.0207    0.0617
  8  -> 20           2.432          0.0000 -0.0418 -0.0002   0.0418    0.0001
  9  -> 10           0.009         -0.4092 -0.0063 -0.0096   0.4093    0.0000
  9  -> 11           0.730          0.0003  0.0173 -0.0026   0.0175    0.0000
  9  -> 12           0.988         -0.0056  0.9699 -0.0004   0.9699    0.0228
  9  -> 13           1.168          0.0250 -0.0001 -0.6271   0.6276    0.0113
  9  -> 14           1.197          0.0115  0.0062 -0.0023   0.0132    0.0000
  9  -> 15           1.271          0.0006 -0.0225 -0.0005   0.0225    0.0000
  9  -> 16           1.452         -0.0004 -0.0936  0.0001   0.0936    0.0003
  9  -> 17           1.874          1.6507  0.0097 -0.0146   1.6508    0.1251
  9  -> 18           2.029          0.0001 -0.0009  0.0000   0.0009    0.0000
  9  -> 19           2.320         -1.3674 -0.0018 -0.0089   1.3674    0.1063
  9  -> 20           2.333         -0.0520 -0.0000 -0.0117   0.0533    0.0002
 10  -> 11           0.720          0.0170  0.0004  0.1930   0.1938    0.0007
 10  -> 12           0.978          1.3090  0.0135  0.0104   1.3091    0.0411
 10  -> 13           1.158          0.0073  0.0294 -0.0037   0.0305    0.0000
 10  -> 14           1.187         -2.0442 -0.0019  0.0170   2.0443    0.1216
 10  -> 15           1.262         -0.1271 -0.0004  0.0655   0.1430    0.0006
 10  -> 16           1.443         -0.0716 -0.0017 -0.0078   0.0720    0.0002
 10  -> 17           1.864          0.0089 -1.6247 -0.0001   1.6247    0.1206
 10  -> 18           2.019         -0.0044  0.0000  0.0327   0.0330    0.0001
 10  -> 19           2.310         -0.0128 -1.8763  0.0004   1.8763    0.1993
 10  -> 20           2.323         -0.0005 -0.0851 -0.0001   0.0851    0.0004
 11  -> 12           0.258          0.0008 -0.0114  0.0115   0.0162    0.0000
 11  -> 13           0.438          2.2832 -0.0013  0.0182   2.2833    0.0560
 11  -> 14           0.467          0.0079  0.0364 -0.0048   0.0376    0.0000
 11  -> 15           0.542         -0.0000 -0.0205 -0.0005   0.0205    0.0000
 11  -> 16           0.723         -0.0001  0.0045 -0.0017   0.0048    0.0000
 11  -> 17           1.144          0.0035  0.0002  2.0974   2.0974    0.1233
 11  -> 18           1.299         -0.0004 -0.0033  0.0000   0.0034    0.0000
 11  -> 19           1.590          0.0024 -0.0002 -1.4824   1.4824    0.0856
 11  -> 20           1.603          0.4821  0.0006 -0.0581   0.4856    0.0093
 12  -> 13           0.180         -0.0398 -0.0019  0.4668   0.4685    0.0010
 12  -> 14           0.209         -0.0120  0.4255  0.0017   0.4257    0.0009
 12  -> 15           0.284         -0.0007  0.0260  0.0015   0.0261    0.0000
 12  -> 16           0.465         -0.0011  0.0256 -0.0001   0.0256    0.0000
 12  -> 17           0.886          0.1796  0.0068 -0.0338   0.1828    0.0007
 12  -> 18           1.041          0.0001 -0.0002  0.0001   0.0002    0.0000
 12  -> 19           1.332         -0.5940  0.0093  0.0284   0.5947    0.0115
 12  -> 20           1.345         -0.0335  0.0004  0.0052   0.0340    0.0000
 13  -> 14           0.029          0.0009  0.0062 -0.8283   0.8283    0.0005
 13  -> 15           0.104          0.2882  0.0003 -0.0517   0.2928    0.0002
 13  -> 16           0.284         -0.0239 -0.0000 -0.0431   0.0493    0.0000
 13  -> 17           0.706         -0.0026 -0.0026  0.0015   0.0039    0.0000
 13  -> 18           0.861          0.2700 -0.0002  0.0022   0.2700    0.0015
 13  -> 19           1.152         -0.0061  0.0009 -0.0230   0.0239    0.0000
 13  -> 20           1.165          0.0004  0.0672 -0.0006   0.0672    0.0001
 14  -> 15           0.074          0.0016 -0.1324 -0.0008   0.1324    0.0000
 14  -> 16           0.255          0.0014  0.0196 -0.0001   0.0197    0.0000
 14  -> 17           0.677          0.7980 -0.0039  0.0085   0.7980    0.0106
 14  -> 18           0.832          0.0009  0.0032  0.0000   0.0033    0.0000
 14  -> 19           1.123          1.5397  0.0037 -0.0387   1.5401    0.0653
 14  -> 20           1.136          0.1021  0.0005 -0.0815   0.1307    0.0005
 15  -> 16           0.181         -0.0001 -0.0735 -0.0002   0.0735    0.0000
 15  -> 17           0.602          0.0525 -0.0004  0.2969   0.3015    0.0013
 15  -> 18           0.757          0.0006 -0.0382 -0.0000   0.0382    0.0000
 15  -> 19           1.048          0.1125  0.0000 -0.1853   0.2168    0.0012
 15  -> 20           1.061         -0.5173 -0.0010 -0.0096   0.5174    0.0070
 16  -> 17           0.422          0.0794 -0.0010 -0.0270   0.0839    0.0001
 16  -> 18           0.576         -0.0002  0.0007 -0.0000   0.0007    0.0000
 16  -> 19           0.868          0.0098 -0.0011  0.0133   0.0166    0.0000
 16  -> 20           0.880          0.1048  0.0001  0.0112   0.1054    0.0002
 17  -> 18           0.155          0.0085  0.0000  0.0132   0.0157    0.0000
 17  -> 19           0.446         -0.0236 -1.0716 -0.0002   1.0719    0.0126
 17  -> 20           0.459         -0.0010 -0.0445  0.0004   0.0445    0.0000
 18  -> 19           0.291          0.1372  0.0003  0.0451   0.1444    0.0001
 18  -> 20           0.304         -3.2090 -0.0049 -0.0204   3.2091    0.0767
 19  -> 20           0.013          0.0006 -0.0693 -0.0022   0.0694    0.0000

 SELECTING EXCITED STATE IROOT=   1 AT E=     -476.5225873640
 AS THE STATE OF INTEREST.

 ..... DONE WITH TD-DFT EXCITATION ENERGIES .....
 CPU     0: STEP CPU TIME=   123.53 TOTAL CPU TIME=        127.2 (      2.1 MIN)
 TOTAL WALL CLOCK TIME=        134.9 SECONDS, CPU UTILIZATION IS    94.28%

             ----------------------------------------------
             -------   RESULTS OF SMD CALCULATION   -------
             ----------------------------------------------
                     COMPUTED FOR THE GROUND STATE         

 INTERNAL ENERGY IN SOLVENT = <PSI| H(0) |PSI>       =     -476.6608280835 A.U.
 TOTAL ENERGY IN SOLVENT = <PSI| H(0)+V/2 |PSI>      =     -476.6652998999 A.U.
 ELECTROSTATIC INTERACTION <PSI| V/2 |PSI>           =       -0.0044718164 A.U.
 CDS INTERACTION                                     =        0.0032419923 A.U.
 TOTAL FREE ENERGY IN SOLVENT                        =     -476.6620579077 A.U.

 ELECTROSTATIC INTERACTION    =          -2.81 KCAL/MOL
 CDS INTERACTION              =           2.03 KCAL/MOL

 .... DONE PRINTING SMD SOLVENT SUMMARY ....
 CPU     0: STEP CPU TIME=     0.00 TOTAL CPU TIME=        127.2 (      2.1 MIN)
 TOTAL WALL CLOCK TIME=        134.9 SECONDS, CPU UTILIZATION IS    94.28%
             12078198  WORDS OF DYNAMIC MEMORY USED
 EXECUTION OF GAMESS TERMINATED NORMALLY Wed May 31 14:51:54 2023
 DDI: 263640 bytes (0.3 MB / 0 MWords) used by master data server.
Note: The following floating-point exceptions are signalling: IEEE_UNDERFLOW_FLAG IEEE_DENORMAL
Note: The following floating-point exceptions are signalling: IEEE_UNDERFLOW_FLAG IEEE_DENORMAL
Note: The following floating-point exceptions are signalling: IEEE_UNDERFLOW_FLAG IEEE_DENORMAL
Note: The following floating-point exceptions are signalling: IEEE_UNDERFLOW_FLAG IEEE_DENORMAL
Note: The following floating-point exceptions are signalling: IEEE_UNDERFLOW_FLAG IEEE_DENORMAL

 ----------------------------------------
 CPU timing information for all processes
 ========================================
 0: 125.171 + 2.29 = 127.200
 1: 124.903 + 2.134 = 127.37
 2: 125.169 + 1.963 = 127.133
 3: 124.880 + 1.882 = 126.763
 4: 124.660 + 1.904 = 126.565
 5: 125.106 + 1.751 = 126.858
 6: 0.630 + 7.101 = 7.732
 7: 0.02 + 0.02 = 0.04
 8: 0.02 + 0.02 = 0.04
 9: 0.02 + 0.02 = 0.04
 10: 0.02 + 0.02 = 0.04
 11: 0.01 + 0.01 = 0.03
 ----------------------------------------
Note: The following floating-point exceptions are signalling: IEEE_UNDERFLOW_FLAG IEEE_DENORMAL
 ddikick.x: exited gracefully.
unset echo
----- accounting info -----
Files used on the master node Samuels-MBP.attlocal.net were:
-rw-r--r-- 1 Sammy staff   31600 May 31 14:49 /Users/Sammy/gamess/scratch/sulfur_ylide_tddft_s_states_mecn.F05
-rw-r--r-- 1 Sammy staff 2683040 May 31 14:51 /Users/Sammy/gamess/scratch/sulfur_ylide_tddft_s_states_mecn.F10
-rw-r--r-- 1 Sammy staff 2081720 May 31 14:49 /Users/Sammy/gamess/scratch/sulfur_ylide_tddft_s_states_mecn.F22
-rw-r--r-- 1 Sammy staff 2081720 May 31 14:49 /Users/Sammy/gamess/scratch/sulfur_ylide_tddft_s_states_mecn.F22.001
-rw-r--r-- 1 Sammy staff 2081720 May 31 14:49 /Users/Sammy/gamess/scratch/sulfur_ylide_tddft_s_states_mecn.F22.002
-rw-r--r-- 1 Sammy staff 2081720 May 31 14:49 /Users/Sammy/gamess/scratch/sulfur_ylide_tddft_s_states_mecn.F22.003
-rw-r--r-- 1 Sammy staff 2081720 May 31 14:49 /Users/Sammy/gamess/scratch/sulfur_ylide_tddft_s_states_mecn.F22.004
-rw-r--r-- 1 Sammy staff 2081720 May 31 14:49 /Users/Sammy/gamess/scratch/sulfur_ylide_tddft_s_states_mecn.F22.005
-rw-r--r-- 1 Sammy staff       8 May 31 14:51 /Users/Sammy/gamess/scratch/sulfur_ylide_tddft_s_states_mecn.F26
-rw-r--r-- 1 Sammy staff       0 May 31 14:49 /Users/Sammy/gamess/scratch/sulfur_ylide_tddft_s_states_mecn.F27
ls: No match.
ls: No match.
ls: No match.
Wed May 31 14:51:57 CDT 2023
125.923u 9.246s 2:18.26 97.7%	0+0k 0+0io 0pf+0w
